<?xml version="1.0" encoding="UTF-8"?>

<!-- generated on Thu Mar 21 21:11:42 2019 by Eclipse SUMO GUI Version 1.0.1
<configuration xmlns:xsi="http://www.w3.org/2001/XMLSchema-instance" xsi:noNamespaceSchemaLocation="http://sumo.dlr.de/xsd/sumoConfiguration.xsd">

    <input>
        <net-file value="../Resources/FiveLanes/fivelanes.net.xml"/>
        <route-files value="../Resources/FiveLanes/100v-trips.trips.xml"/>
    </input>

    <output>
        <output-prefix value="0"/>
        <tripinfo-output value="tripinfos.xml"/>
        <lanechange-output value="lanechange.xml"/>
    </output>

    <processing>
        <ignore-route-errors value="true"/>
    </processing>

    <report>
        <verbose value="true"/>
        <duration-log.statistics value="true"/>
        <no-step-log value="true"/>
    </report>

    <traci_server>
        <remote-port value="50894"/>
    </traci_server>

    <random_number>
        <seed value="401"/>
    </random_number>

    <gui_only>
        <quit-on-end value="true"/>
        <start value="true"/>
    </gui_only>

</configuration>
-->

<tripinfos xmlns:xsi="http://www.w3.org/2001/XMLSchema-instance" xsi:noNamespaceSchemaLocation="http://sumo.dlr.de/xsd/tripinfo_file.xsd">
    <tripinfo id="0" depart="0.00" departLane="gneE0_4" departPos="5.10" departSpeed="0.00" departDelay="0.00" arrival="77.00" arrivalLane="gneE0_4" arrivalPos="2000.00" arrivalSpeed="28.70" duration="77.00" routeLength="1994.90" waitingTime="0.00" waitingCount="0" stopTime="0.00" timeLoss="8.94" rerouteNo="1" devices="tripinfo_0 routing_0" vType="DEFAULT_VEHTYPE" speedFactor="1.11" vaporized=""/>
    <tripinfo id="2" depart="2.00" departLane="gneE0_0" departPos="5.10" departSpeed="0.00" departDelay="0.00" arrival="83.00" arrivalLane="gneE0_1" arrivalPos="2000.00" arrivalSpeed="27.43" duration="81.00" routeLength="1994.90" waitingTime="0.00" waitingCount="0" stopTime="0.00" timeLoss="8.54" rerouteNo="1" devices="tripinfo_2 routing_2" vType="DEFAULT_VEHTYPE" speedFactor="1.03" vaporized=""/>
    <tripinfo id="1" depart="1.00" departLane="gneE0_1" departPos="5.10" departSpeed="0.00" departDelay="0.00" arrival="92.00" arrivalLane="gneE0_2" arrivalPos="2000.00" arrivalSpeed="24.04" duration="91.00" routeLength="1994.90" waitingTime="0.00" waitingCount="0" stopTime="0.00" timeLoss="9.46" rerouteNo="1" devices="tripinfo_1 routing_1" vType="DEFAULT_VEHTYPE" speedFactor="0.92" vaporized=""/>
    <tripinfo id="4" depart="4.00" departLane="gneE0_1" departPos="5.10" departSpeed="0.00" departDelay="0.00" arrival="93.00" arrivalLane="gneE0_1" arrivalPos="2000.00" arrivalSpeed="26.06" duration="89.00" routeLength="1994.90" waitingTime="0.00" waitingCount="0" stopTime="0.00" timeLoss="22.34" rerouteNo="1" devices="tripinfo_4 routing_4" vType="DEFAULT_VEHTYPE" speedFactor="1.12" vaporized=""/>
    <tripinfo id="6" depart="6.00" departLane="gneE0_0" departPos="5.10" departSpeed="0.00" departDelay="0.00" arrival="94.00" arrivalLane="gneE0_0" arrivalPos="2000.00" arrivalSpeed="26.69" duration="88.00" routeLength="1994.90" waitingTime="0.00" waitingCount="0" stopTime="0.00" timeLoss="15.17" rerouteNo="1" devices="tripinfo_6 routing_6" vType="DEFAULT_VEHTYPE" speedFactor="1.03" vaporized=""/>
    <tripinfo id="3" depart="4.00" departLane="gneE0_4" departPos="5.10" departSpeed="0.00" departDelay="1.00" arrival="94.00" arrivalLane="gneE0_4" arrivalPos="2000.00" arrivalSpeed="24.33" duration="90.00" routeLength="1994.90" waitingTime="0.00" waitingCount="0" stopTime="0.00" timeLoss="8.38" rerouteNo="1" devices="tripinfo_3 routing_3" vType="DEFAULT_VEHTYPE" speedFactor="0.91" vaporized=""/>
    <tripinfo id="8" depart="8.00" departLane="gneE0_4" departPos="5.10" departSpeed="0.00" departDelay="0.00" arrival="96.00" arrivalLane="gneE0_3" arrivalPos="2000.00" arrivalSpeed="24.02" duration="88.00" routeLength="1994.90" waitingTime="0.00" waitingCount="0" stopTime="0.00" timeLoss="12.60" rerouteNo="1" devices="tripinfo_8 routing_8" vType="DEFAULT_VEHTYPE" speedFactor="0.99" vaporized=""/>
    <tripinfo id="9" depart="10.00" departLane="gneE0_0" departPos="5.10" departSpeed="0.00" departDelay="1.00" arrival="99.00" arrivalLane="gneE0_1" arrivalPos="2000.00" arrivalSpeed="24.27" duration="89.00" routeLength="1994.90" waitingTime="0.00" waitingCount="0" stopTime="0.00" timeLoss="7.48" rerouteNo="1" devices="tripinfo_9 routing_9" vType="DEFAULT_VEHTYPE" speedFactor="0.92" vaporized=""/>
    <tripinfo id="5" depart="5.00" departLane="gneE0_2" departPos="5.10" departSpeed="0.00" departDelay="0.00" arrival="100.00" arrivalLane="gneE0_4" arrivalPos="2000.00" arrivalSpeed="22.64" duration="95.00" routeLength="1994.90" waitingTime="0.00" waitingCount="0" stopTime="0.00" timeLoss="6.62" rerouteNo="1" devices="tripinfo_5 routing_5" vType="DEFAULT_VEHTYPE" speedFactor="0.84" vaporized=""/>
    <tripinfo id="7" depart="7.00" departLane="gneE0_3" departPos="5.10" departSpeed="0.00" departDelay="0.00" arrival="101.00" arrivalLane="gneE0_3" arrivalPos="2000.00" arrivalSpeed="24.96" duration="94.00" routeLength="1994.90" waitingTime="0.00" waitingCount="0" stopTime="0.00" timeLoss="20.86" rerouteNo="1" devices="tripinfo_7 routing_7" vType="DEFAULT_VEHTYPE" speedFactor="1.02" vaporized=""/>
    <tripinfo id="12" depart="12.00" departLane="gneE0_1" departPos="5.10" departSpeed="0.00" departDelay="0.00" arrival="101.00" arrivalLane="gneE0_1" arrivalPos="2000.00" arrivalSpeed="26.28" duration="89.00" routeLength="1994.90" waitingTime="0.00" waitingCount="0" stopTime="0.00" timeLoss="13.54" rerouteNo="1" devices="tripinfo_12 routing_12" vType="DEFAULT_VEHTYPE" speedFactor="1.00" vaporized=""/>
    <tripinfo id="13" depart="13.00" departLane="gneE0_4" departPos="5.10" departSpeed="0.00" departDelay="0.00" arrival="102.00" arrivalLane="gneE0_4" arrivalPos="2000.00" arrivalSpeed="26.26" duration="89.00" routeLength="1994.90" waitingTime="0.00" waitingCount="0" stopTime="0.00" timeLoss="14.63" rerouteNo="1" devices="tripinfo_13 routing_13" vType="DEFAULT_VEHTYPE" speedFactor="1.01" vaporized=""/>
    <tripinfo id="10" depart="10.00" departLane="gneE0_3" departPos="5.10" departSpeed="0.00" departDelay="0.00" arrival="103.00" arrivalLane="gneE0_3" arrivalPos="2000.00" arrivalSpeed="26.36" duration="93.00" routeLength="1994.90" waitingTime="0.00" waitingCount="0" stopTime="0.00" timeLoss="18.46" rerouteNo="1" devices="tripinfo_10 routing_10" vType="DEFAULT_VEHTYPE" speedFactor="1.01" vaporized=""/>
    <tripinfo id="14" depart="14.00" departLane="gneE0_3" departPos="5.10" departSpeed="0.00" departDelay="0.00" arrival="104.00" arrivalLane="gneE0_3" arrivalPos="2000.00" arrivalSpeed="26.62" duration="90.00" routeLength="1994.90" waitingTime="0.00" waitingCount="0" stopTime="0.00" timeLoss="18.49" rerouteNo="1" devices="tripinfo_14 routing_14" vType="DEFAULT_VEHTYPE" speedFactor="1.04" vaporized=""/>
    <tripinfo id="11" depart="12.00" departLane="gneE0_2" departPos="5.10" departSpeed="0.00" departDelay="1.00" arrival="104.00" arrivalLane="gneE0_2" arrivalPos="2000.00" arrivalSpeed="27.95" duration="92.00" routeLength="1994.90" waitingTime="0.00" waitingCount="0" stopTime="0.00" timeLoss="28.72" rerouteNo="1" devices="tripinfo_11 routing_11" vType="DEFAULT_VEHTYPE" speedFactor="1.18" vaporized=""/>
    <tripinfo id="15" depart="15.00" departLane="gneE0_2" departPos="5.10" departSpeed="0.00" departDelay="0.00" arrival="106.00" arrivalLane="gneE0_2" arrivalPos="2000.00" arrivalSpeed="28.63" duration="91.00" routeLength="1994.90" waitingTime="0.00" waitingCount="0" stopTime="0.00" timeLoss="21.25" rerouteNo="1" devices="tripinfo_15 routing_15" vType="DEFAULT_VEHTYPE" speedFactor="1.08" vaporized=""/>
    <tripinfo id="18" depart="18.00" departLane="gneE0_1" departPos="5.10" departSpeed="0.00" departDelay="0.00" arrival="106.00" arrivalLane="gneE0_1" arrivalPos="2000.00" arrivalSpeed="26.26" duration="88.00" routeLength="1994.90" waitingTime="0.00" waitingCount="0" stopTime="0.00" timeLoss="14.54" rerouteNo="1" devices="tripinfo_18 routing_18" vType="DEFAULT_VEHTYPE" speedFactor="1.02" vaporized=""/>
    <tripinfo id="17" depart="17.00" departLane="gneE0_3" departPos="5.10" departSpeed="0.00" departDelay="0.00" arrival="107.00" arrivalLane="gneE0_2" arrivalPos="2000.00" arrivalSpeed="26.27" duration="90.00" routeLength="1994.90" waitingTime="0.00" waitingCount="0" stopTime="0.00" timeLoss="15.19" rerouteNo="1" devices="tripinfo_17 routing_17" vType="DEFAULT_VEHTYPE" speedFactor="1.00" vaporized=""/>
    <tripinfo id="16" depart="19.00" departLane="gneE0_0" departPos="5.10" departSpeed="0.00" departDelay="3.00" arrival="113.00" arrivalLane="gneE0_0" arrivalPos="2000.00" arrivalSpeed="23.17" duration="94.00" routeLength="1994.90" waitingTime="0.00" waitingCount="0" stopTime="0.00" timeLoss="8.57" rerouteNo="1" devices="tripinfo_16 routing_16" vType="DEFAULT_VEHTYPE" speedFactor="0.88" vaporized=""/>
    <tripinfo id="20" depart="20.00" departLane="gneE0_2" departPos="5.10" departSpeed="0.00" departDelay="0.00" arrival="114.00" arrivalLane="gneE0_2" arrivalPos="2000.00" arrivalSpeed="23.40" duration="94.00" routeLength="1994.90" waitingTime="0.00" waitingCount="0" stopTime="0.00" timeLoss="8.36" rerouteNo="1" devices="tripinfo_20 routing_20" vType="DEFAULT_VEHTYPE" speedFactor="0.88" vaporized=""/>
    <tripinfo id="25" depart="25.00" departLane="gneE0_2" departPos="5.10" departSpeed="0.00" departDelay="0.00" arrival="115.00" arrivalLane="gneE0_2" arrivalPos="2000.00" arrivalSpeed="24.63" duration="90.00" routeLength="1994.90" waitingTime="0.00" waitingCount="0" stopTime="0.00" timeLoss="12.88" rerouteNo="1" devices="tripinfo_25 routing_25" vType="DEFAULT_VEHTYPE" speedFactor="0.97" vaporized=""/>
    <tripinfo id="23" depart="23.00" departLane="gneE0_1" departPos="5.10" departSpeed="0.00" departDelay="0.00" arrival="115.00" arrivalLane="gneE0_1" arrivalPos="2000.00" arrivalSpeed="23.34" duration="92.00" routeLength="1994.90" waitingTime="0.00" waitingCount="0" stopTime="0.00" timeLoss="10.41" rerouteNo="1" devices="tripinfo_23 routing_23" vType="DEFAULT_VEHTYPE" speedFactor="0.92" vaporized=""/>
    <tripinfo id="22" depart="22.00" departLane="gneE0_0" departPos="5.10" departSpeed="0.00" departDelay="0.00" arrival="117.00" arrivalLane="gneE0_0" arrivalPos="2000.00" arrivalSpeed="21.85" duration="95.00" routeLength="1994.90" waitingTime="0.00" waitingCount="0" stopTime="0.00" timeLoss="7.99" rerouteNo="1" devices="tripinfo_22 routing_22" vType="DEFAULT_VEHTYPE" speedFactor="0.86" vaporized=""/>
    <tripinfo id="26" depart="27.00" departLane="gneE0_1" departPos="5.10" departSpeed="0.00" departDelay="1.00" arrival="119.00" arrivalLane="gneE0_1" arrivalPos="2000.00" arrivalSpeed="23.21" duration="92.00" routeLength="1994.90" waitingTime="0.00" waitingCount="0" stopTime="0.00" timeLoss="19.27" rerouteNo="1" devices="tripinfo_26 routing_26" vType="DEFAULT_VEHTYPE" speedFactor="1.03" vaporized=""/>
    <tripinfo id="29" depart="31.00" departLane="gneE0_0" departPos="5.10" departSpeed="0.00" departDelay="2.00" arrival="120.00" arrivalLane="gneE0_0" arrivalPos="2000.00" arrivalSpeed="25.23" duration="89.00" routeLength="1994.90" waitingTime="0.00" waitingCount="0" stopTime="0.00" timeLoss="13.15" rerouteNo="1" devices="tripinfo_29 routing_29" vType="DEFAULT_VEHTYPE" speedFactor="0.98" vaporized=""/>
    <tripinfo id="19" depart="19.00" departLane="gneE0_4" departPos="5.10" departSpeed="0.00" departDelay="0.00" arrival="121.00" arrivalLane="gneE0_4" arrivalPos="2000.00" arrivalSpeed="21.12" duration="102.00" routeLength="1994.90" waitingTime="0.00" waitingCount="0" stopTime="0.00" timeLoss="8.62" rerouteNo="1" devices="tripinfo_19 routing_19" vType="DEFAULT_VEHTYPE" speedFactor="0.80" vaporized=""/>
    <tripinfo id="31" depart="33.00" departLane="gneE0_1" departPos="5.10" departSpeed="0.00" departDelay="2.00" arrival="123.00" arrivalLane="gneE0_1" arrivalPos="2000.00" arrivalSpeed="28.75" duration="90.00" routeLength="1994.90" waitingTime="0.00" waitingCount="0" stopTime="0.00" timeLoss="21.45" rerouteNo="1" devices="tripinfo_31 routing_31" vType="DEFAULT_VEHTYPE" speedFactor="1.09" vaporized=""/>
    <tripinfo id="24" depart="25.00" departLane="gneE0_4" departPos="5.10" departSpeed="0.00" departDelay="1.00" arrival="123.00" arrivalLane="gneE0_4" arrivalPos="2000.00" arrivalSpeed="24.48" duration="98.00" routeLength="1994.90" waitingTime="0.00" waitingCount="0" stopTime="0.00" timeLoss="34.17" rerouteNo="1" devices="tripinfo_24 routing_24" vType="DEFAULT_VEHTYPE" speedFactor="1.18" vaporized=""/>
    <tripinfo id="34" depart="35.00" departLane="gneE0_0" departPos="5.10" departSpeed="0.00" departDelay="1.00" arrival="124.00" arrivalLane="gneE0_0" arrivalPos="2000.00" arrivalSpeed="26.72" duration="89.00" routeLength="1994.90" waitingTime="0.00" waitingCount="0" stopTime="0.00" timeLoss="15.42" rerouteNo="1" devices="tripinfo_34 routing_34" vType="DEFAULT_VEHTYPE" speedFactor="1.01" vaporized=""/>
    <tripinfo id="21" depart="21.00" departLane="gneE0_3" departPos="5.10" departSpeed="0.00" departDelay="0.00" arrival="124.00" arrivalLane="gneE0_4" arrivalPos="2000.00" arrivalSpeed="23.98" duration="103.00" routeLength="1994.90" waitingTime="0.00" waitingCount="0" stopTime="0.00" timeLoss="38.63" rerouteNo="1" devices="tripinfo_21 routing_21" vType="DEFAULT_VEHTYPE" speedFactor="1.16" vaporized=""/>
    <tripinfo id="27" depart="27.00" departLane="gneE0_3" departPos="5.10" departSpeed="0.00" departDelay="0.00" arrival="125.00" arrivalLane="gneE0_3" arrivalPos="2000.00" arrivalSpeed="24.72" duration="98.00" routeLength="1994.90" waitingTime="0.00" waitingCount="0" stopTime="0.00" timeLoss="29.68" rerouteNo="1" devices="tripinfo_27 routing_27" vType="DEFAULT_VEHTYPE" speedFactor="1.10" vaporized=""/>
    <tripinfo id="28" depart="28.00" departLane="gneE0_2" departPos="5.10" departSpeed="0.00" departDelay="0.00" arrival="126.00" arrivalLane="gneE0_2" arrivalPos="2000.00" arrivalSpeed="23.63" duration="98.00" routeLength="1994.90" waitingTime="0.00" waitingCount="0" stopTime="0.00" timeLoss="15.73" rerouteNo="1" devices="tripinfo_28 routing_28" vType="DEFAULT_VEHTYPE" speedFactor="0.91" vaporized=""/>
    <tripinfo id="32" depart="32.00" departLane="gneE0_4" departPos="5.10" departSpeed="0.00" departDelay="0.00" arrival="126.00" arrivalLane="gneE0_4" arrivalPos="2000.00" arrivalSpeed="25.19" duration="94.00" routeLength="1994.90" waitingTime="0.00" waitingCount="0" stopTime="0.00" timeLoss="15.37" rerouteNo="1" devices="tripinfo_32 routing_32" vType="DEFAULT_VEHTYPE" speedFactor="0.95" vaporized=""/>
    <tripinfo id="30" depart="31.00" departLane="gneE0_3" departPos="5.10" departSpeed="0.00" departDelay="1.00" arrival="127.00" arrivalLane="gneE0_3" arrivalPos="2000.00" arrivalSpeed="26.00" duration="96.00" routeLength="1994.90" waitingTime="0.00" waitingCount="0" stopTime="0.00" timeLoss="21.37" rerouteNo="1" devices="tripinfo_30 routing_30" vType="DEFAULT_VEHTYPE" speedFactor="1.00" vaporized=""/>
    <tripinfo id="35" depart="36.00" departLane="gneE0_4" departPos="5.10" departSpeed="0.00" departDelay="1.00" arrival="127.00" arrivalLane="gneE0_4" arrivalPos="2000.00" arrivalSpeed="26.89" duration="91.00" routeLength="1994.90" waitingTime="0.00" waitingCount="0" stopTime="0.00" timeLoss="22.13" rerouteNo="1" devices="tripinfo_35 routing_35" vType="DEFAULT_VEHTYPE" speedFactor="1.08" vaporized=""/>
    <tripinfo id="33" depart="33.00" departLane="gneE0_2" departPos="5.10" departSpeed="0.00" departDelay="0.00" arrival="128.00" arrivalLane="gneE0_2" arrivalPos="2000.00" arrivalSpeed="24.17" duration="95.00" routeLength="1994.90" waitingTime="0.00" waitingCount="0" stopTime="0.00" timeLoss="14.43" rerouteNo="1" devices="tripinfo_33 routing_33" vType="DEFAULT_VEHTYPE" speedFactor="0.93" vaporized=""/>
    <tripinfo id="37" depart="37.00" departLane="gneE0_3" departPos="5.10" departSpeed="0.00" departDelay="0.00" arrival="129.00" arrivalLane="gneE0_3" arrivalPos="2000.00" arrivalSpeed="24.70" duration="92.00" routeLength="1994.90" waitingTime="0.00" waitingCount="0" stopTime="0.00" timeLoss="11.72" rerouteNo="1" devices="tripinfo_37 routing_37" vType="DEFAULT_VEHTYPE" speedFactor="0.93" vaporized=""/>
    <tripinfo id="36" depart="36.00" departLane="gneE0_2" departPos="5.10" departSpeed="0.00" departDelay="0.00" arrival="129.00" arrivalLane="gneE0_2" arrivalPos="2000.00" arrivalSpeed="23.78" duration="93.00" routeLength="1994.90" waitingTime="0.00" waitingCount="0" stopTime="0.00" timeLoss="13.10" rerouteNo="1" devices="tripinfo_36 routing_36" vType="DEFAULT_VEHTYPE" speedFactor="0.93" vaporized=""/>
    <tripinfo id="39" depart="39.00" departLane="gneE0_4" departPos="5.10" departSpeed="0.00" departDelay="0.00" arrival="129.00" arrivalLane="gneE0_4" arrivalPos="2000.00" arrivalSpeed="26.73" duration="90.00" routeLength="1994.90" waitingTime="0.00" waitingCount="0" stopTime="0.00" timeLoss="16.42" rerouteNo="1" devices="tripinfo_39 routing_39" vType="DEFAULT_VEHTYPE" speedFactor="1.02" vaporized=""/>
    <tripinfo id="41" depart="42.00" departLane="gneE0_3" departPos="5.10" departSpeed="0.00" departDelay="1.00" arrival="131.00" arrivalLane="gneE0_3" arrivalPos="2000.00" arrivalSpeed="21.26" duration="89.00" routeLength="1994.90" waitingTime="0.00" waitingCount="0" stopTime="0.00" timeLoss="14.60" rerouteNo="1" devices="tripinfo_41 routing_41" vType="DEFAULT_VEHTYPE" speedFactor="1.00" vaporized=""/>
    <tripinfo id="43" depart="45.00" departLane="gneE0_4" departPos="5.10" departSpeed="0.00" departDelay="2.00" arrival="131.00" arrivalLane="gneE0_4" arrivalPos="2000.00" arrivalSpeed="25.72" duration="86.00" routeLength="1994.90" waitingTime="0.00" waitingCount="0" stopTime="0.00" timeLoss="7.77" rerouteNo="1" devices="tripinfo_43 routing_43" vType="DEFAULT_VEHTYPE" speedFactor="0.96" vaporized=""/>
    <tripinfo id="44" depart="48.00" departLane="gneE0_4" departPos="5.10" departSpeed="0.00" departDelay="4.00" arrival="132.00" arrivalLane="gneE0_4" arrivalPos="2000.00" arrivalSpeed="25.53" duration="84.00" routeLength="1994.90" waitingTime="0.00" waitingCount="0" stopTime="0.00" timeLoss="11.96" rerouteNo="1" devices="tripinfo_44 routing_44" vType="DEFAULT_VEHTYPE" speedFactor="1.04" vaporized=""/>
    <tripinfo id="38" depart="39.00" departLane="gneE0_2" departPos="5.10" departSpeed="0.00" departDelay="1.00" arrival="134.00" arrivalLane="gneE0_2" arrivalPos="2000.00" arrivalSpeed="22.23" duration="95.00" routeLength="1994.90" waitingTime="0.00" waitingCount="0" stopTime="0.00" timeLoss="7.76" rerouteNo="1" devices="tripinfo_38 routing_38" vType="DEFAULT_VEHTYPE" speedFactor="0.86" vaporized=""/>
    <tripinfo id="40" depart="40.00" departLane="gneE0_1" departPos="5.10" departSpeed="0.00" departDelay="0.00" arrival="134.00" arrivalLane="gneE0_1" arrivalPos="2000.00" arrivalSpeed="22.72" duration="94.00" routeLength="1994.90" waitingTime="0.00" waitingCount="0" stopTime="0.00" timeLoss="23.01" rerouteNo="1" devices="tripinfo_40 routing_40" vType="DEFAULT_VEHTYPE" speedFactor="1.06" vaporized=""/>
    <tripinfo id="46" depart="47.00" departLane="gneE0_2" departPos="5.10" departSpeed="0.00" departDelay="1.00" arrival="135.00" arrivalLane="gneE0_2" arrivalPos="2000.00" arrivalSpeed="24.29" duration="88.00" routeLength="1994.90" waitingTime="0.00" waitingCount="0" stopTime="0.00" timeLoss="15.54" rerouteNo="1" devices="tripinfo_46 routing_46" vType="DEFAULT_VEHTYPE" speedFactor="1.03" vaporized=""/>
    <tripinfo id="42" depart="42.00" departLane="gneE0_0" departPos="5.10" departSpeed="0.00" departDelay="0.00" arrival="135.00" arrivalLane="gneE0_0" arrivalPos="2000.00" arrivalSpeed="25.28" duration="93.00" routeLength="1994.90" waitingTime="0.00" waitingCount="0" stopTime="0.00" timeLoss="16.53" rerouteNo="1" devices="tripinfo_42 routing_42" vType="DEFAULT_VEHTYPE" speedFactor="0.98" vaporized=""/>
    <tripinfo id="51" depart="51.00" departLane="gneE0_4" departPos="5.10" departSpeed="0.00" departDelay="0.00" arrival="135.00" arrivalLane="gneE0_4" arrivalPos="2000.00" arrivalSpeed="25.20" duration="84.00" routeLength="1994.90" waitingTime="0.00" waitingCount="0" stopTime="0.00" timeLoss="7.39" rerouteNo="1" devices="tripinfo_51 routing_51" vType="DEFAULT_VEHTYPE" speedFactor="0.98" vaporized=""/>
    <tripinfo id="47" depart="47.00" departLane="gneE0_0" departPos="5.10" departSpeed="0.00" departDelay="0.00" arrival="136.00" arrivalLane="gneE0_0" arrivalPos="2000.00" arrivalSpeed="22.92" duration="89.00" routeLength="1994.90" waitingTime="0.00" waitingCount="0" stopTime="0.00" timeLoss="21.33" rerouteNo="1" devices="tripinfo_47 routing_47" vType="DEFAULT_VEHTYPE" speedFactor="1.10" vaporized=""/>
    <tripinfo id="49" depart="49.00" departLane="gneE0_3" departPos="5.10" departSpeed="0.00" departDelay="0.00" arrival="137.00" arrivalLane="gneE0_3" arrivalPos="2000.00" arrivalSpeed="24.20" duration="88.00" routeLength="1994.90" waitingTime="0.00" waitingCount="0" stopTime="0.00" timeLoss="8.55" rerouteNo="1" devices="tripinfo_49 routing_49" vType="DEFAULT_VEHTYPE" speedFactor="0.95" vaporized=""/>
</tripinfos>
