<?xml version="1.0" encoding="UTF-8"?>

<!-- generated on Fri Mar 29 17:07:34 2019 by Eclipse SUMO Version 1.0.1
<configuration xmlns:xsi="http://www.w3.org/2001/XMLSchema-instance" xsi:noNamespaceSchemaLocation="http://sumo.dlr.de/xsd/sumoConfiguration.xsd">

    <input>
        <net-file value="../Resources/FiveLanes/fivelanes.net.xml"/>
        <route-files value="../Resources/FiveLanes/1000v-trips.trips.xml"/>
    </input>

    <output>
        <output-prefix value="19"/>
        <tripinfo-output value="tripinfos.xml"/>
        <lanechange-output value="lanechange.xml"/>
    </output>

    <processing>
        <ignore-route-errors value="true"/>
    </processing>

    <report>
        <verbose value="true"/>
        <duration-log.statistics value="true"/>
        <no-step-log value="true"/>
    </report>

    <traci_server>
        <remote-port value="56319"/>
    </traci_server>

    <random_number>
        <seed value="99314"/>
    </random_number>

    <gui_only>
        <quit-on-end value="true"/>
        <start value="true"/>
    </gui_only>

</configuration>
-->

<tripinfos xmlns:xsi="http://www.w3.org/2001/XMLSchema-instance" xsi:noNamespaceSchemaLocation="http://sumo.dlr.de/xsd/tripinfo_file.xsd">
    <tripinfo id="1" depart="1.00" departLane="gneE0_1" departPos="5.10" departSpeed="0.00" departDelay="0.00" arrival="77.00" arrivalLane="gneE0_1" arrivalPos="2000.00" arrivalSpeed="29.23" duration="76.00" routeLength="1994.90" waitingTime="0.00" waitingCount="0" stopTime="0.00" timeLoss="7.61" rerouteNo="1" devices="tripinfo_1 routing_1" vType="DEFAULT_VEHTYPE" speedFactor="1.09" vaporized=""/>
    <tripinfo id="3" depart="4.00" departLane="gneE0_1" departPos="5.10" departSpeed="0.00" departDelay="1.00" arrival="80.00" arrivalLane="gneE0_1" arrivalPos="2000.00" arrivalSpeed="29.05" duration="76.00" routeLength="1994.90" waitingTime="0.00" waitingCount="0" stopTime="0.00" timeLoss="8.55" rerouteNo="1" devices="tripinfo_3 routing_3" vType="DEFAULT_VEHTYPE" speedFactor="1.11" vaporized=""/>
    <tripinfo id="0" depart="0.00" departLane="gneE0_0" departPos="5.10" departSpeed="0.00" departDelay="0.00" arrival="81.00" arrivalLane="gneE0_0" arrivalPos="2000.00" arrivalSpeed="26.87" duration="81.00" routeLength="1994.90" waitingTime="0.00" waitingCount="0" stopTime="0.00" timeLoss="7.83" rerouteNo="1" devices="tripinfo_0 routing_0" vType="DEFAULT_VEHTYPE" speedFactor="1.03" vaporized=""/>
    <tripinfo id="2" depart="3.00" departLane="gneE0_0" departPos="5.10" departSpeed="0.00" departDelay="1.00" arrival="90.00" arrivalLane="gneE0_0" arrivalPos="2000.00" arrivalSpeed="24.52" duration="87.00" routeLength="1994.90" waitingTime="0.00" waitingCount="0" stopTime="0.00" timeLoss="7.73" rerouteNo="1" devices="tripinfo_2 routing_2" vType="DEFAULT_VEHTYPE" speedFactor="0.95" vaporized=""/>
    <tripinfo id="5" depart="6.00" departLane="gneE0_0" departPos="5.10" departSpeed="0.00" departDelay="1.00" arrival="91.00" arrivalLane="gneE0_0" arrivalPos="2000.00" arrivalSpeed="25.89" duration="85.00" routeLength="1994.90" waitingTime="0.00" waitingCount="0" stopTime="0.00" timeLoss="8.17" rerouteNo="1" devices="tripinfo_5 routing_5" vType="DEFAULT_VEHTYPE" speedFactor="0.97" vaporized=""/>
    <tripinfo id="11" depart="12.00" departLane="gneE0_1" departPos="5.10" departSpeed="0.00" departDelay="1.00" arrival="113.00" arrivalLane="gneE0_1" arrivalPos="2000.00" arrivalSpeed="22.57" duration="101.00" routeLength="1994.90" waitingTime="0.00" waitingCount="0" stopTime="0.00" timeLoss="27.28" rerouteNo="1" devices="tripinfo_11 routing_11" vType="DEFAULT_VEHTYPE" speedFactor="1.02" vaporized=""/>
    <tripinfo id="15" depart="16.00" departLane="gneE0_0" departPos="5.10" departSpeed="0.00" departDelay="1.00" arrival="114.00" arrivalLane="gneE0_0" arrivalPos="2000.00" arrivalSpeed="24.83" duration="98.00" routeLength="1994.90" waitingTime="0.00" waitingCount="0" stopTime="0.00" timeLoss="28.78" rerouteNo="1" devices="tripinfo_15 routing_15" vType="DEFAULT_VEHTYPE" speedFactor="1.08" vaporized=""/>
    <tripinfo id="19" depart="20.00" departLane="gneE0_0" departPos="5.10" departSpeed="0.00" departDelay="1.00" arrival="116.00" arrivalLane="gneE0_0" arrivalPos="2000.00" arrivalSpeed="24.89" duration="96.00" routeLength="1994.90" waitingTime="0.00" waitingCount="0" stopTime="0.00" timeLoss="16.66" rerouteNo="1" devices="tripinfo_19 routing_19" vType="DEFAULT_VEHTYPE" speedFactor="0.95" vaporized=""/>
    <tripinfo id="22" depart="23.00" departLane="gneE0_0" departPos="5.10" departSpeed="0.00" departDelay="1.00" arrival="117.00" arrivalLane="gneE0_0" arrivalPos="2000.00" arrivalSpeed="26.04" duration="94.00" routeLength="1994.90" waitingTime="0.00" waitingCount="0" stopTime="0.00" timeLoss="18.41" rerouteNo="1" devices="tripinfo_22 routing_22" vType="DEFAULT_VEHTYPE" speedFactor="0.99" vaporized=""/>
    <tripinfo id="4" depart="5.00" departLane="gneE0_4" departPos="5.10" departSpeed="0.00" departDelay="1.00" arrival="122.00" arrivalLane="gneE0_4" arrivalPos="2000.00" arrivalSpeed="20.54" duration="117.00" routeLength="1994.90" waitingTime="0.00" waitingCount="0" stopTime="0.00" timeLoss="39.02" rerouteNo="1" devices="tripinfo_4 routing_4" vType="DEFAULT_VEHTYPE" speedFactor="0.96" vaporized=""/>
    <tripinfo id="8" depart="9.00" departLane="gneE0_4" departPos="5.10" departSpeed="0.00" departDelay="1.00" arrival="123.00" arrivalLane="gneE0_2" arrivalPos="2000.00" arrivalSpeed="28.34" duration="114.00" routeLength="1994.90" waitingTime="0.00" waitingCount="0" stopTime="0.00" timeLoss="43.36" rerouteNo="1" devices="tripinfo_8 routing_8" vType="DEFAULT_VEHTYPE" speedFactor="1.06" vaporized=""/>
    <tripinfo id="14" depart="14.00" departLane="gneE0_2" departPos="5.10" departSpeed="0.00" departDelay="0.00" arrival="123.00" arrivalLane="gneE0_0" arrivalPos="2000.00" arrivalSpeed="21.32" duration="109.00" routeLength="1994.90" waitingTime="0.00" waitingCount="0" stopTime="0.00" timeLoss="17.69" rerouteNo="1" devices="tripinfo_14 routing_14" vType="DEFAULT_VEHTYPE" speedFactor="0.81" vaporized=""/>
    <tripinfo id="16" depart="19.00" departLane="gneE0_4" departPos="5.10" departSpeed="0.00" departDelay="3.00" arrival="124.00" arrivalLane="gneE0_4" arrivalPos="2000.00" arrivalSpeed="29.01" duration="105.00" routeLength="1994.90" waitingTime="0.00" waitingCount="0" stopTime="0.00" timeLoss="37.91" rerouteNo="1" devices="tripinfo_16 routing_16" vType="DEFAULT_VEHTYPE" speedFactor="1.12" vaporized=""/>
    <tripinfo id="21" depart="22.00" departLane="gneE0_4" departPos="5.10" departSpeed="0.00" departDelay="1.00" arrival="125.00" arrivalLane="gneE0_4" arrivalPos="2000.00" arrivalSpeed="28.65" duration="103.00" routeLength="1994.90" waitingTime="0.00" waitingCount="0" stopTime="0.00" timeLoss="36.16" rerouteNo="1" devices="tripinfo_21 routing_21" vType="DEFAULT_VEHTYPE" speedFactor="1.11" vaporized=""/>
    <tripinfo id="24" depart="24.00" departLane="gneE0_4" departPos="5.10" departSpeed="0.00" departDelay="0.00" arrival="128.00" arrivalLane="gneE0_4" arrivalPos="2000.00" arrivalSpeed="25.20" duration="104.00" routeLength="1994.90" waitingTime="0.00" waitingCount="0" stopTime="0.00" timeLoss="25.42" rerouteNo="1" devices="tripinfo_24 routing_24" vType="DEFAULT_VEHTYPE" speedFactor="0.95" vaporized=""/>
    <tripinfo id="6" depart="6.00" departLane="gneE0_3" departPos="5.10" departSpeed="0.00" departDelay="0.00" arrival="129.00" arrivalLane="gneE0_3" arrivalPos="2000.00" arrivalSpeed="17.40" duration="123.00" routeLength="1994.90" waitingTime="0.00" waitingCount="0" stopTime="0.00" timeLoss="63.79" rerouteNo="1" devices="tripinfo_6 routing_6" vType="DEFAULT_VEHTYPE" speedFactor="1.27" vaporized=""/>
    <tripinfo id="28" depart="28.00" departLane="gneE0_4" departPos="5.10" departSpeed="0.00" departDelay="0.00" arrival="130.00" arrivalLane="gneE0_4" arrivalPos="2000.00" arrivalSpeed="24.60" duration="102.00" routeLength="1994.90" waitingTime="0.00" waitingCount="0" stopTime="0.00" timeLoss="31.12" rerouteNo="1" devices="tripinfo_28 routing_28" vType="DEFAULT_VEHTYPE" speedFactor="1.06" vaporized=""/>
    <tripinfo id="9" depart="9.00" departLane="gneE0_3" departPos="5.10" departSpeed="0.00" departDelay="0.00" arrival="131.00" arrivalLane="gneE0_3" arrivalPos="2000.00" arrivalSpeed="16.00" duration="122.00" routeLength="1994.90" waitingTime="0.00" waitingCount="0" stopTime="0.00" timeLoss="46.99" rerouteNo="1" devices="tripinfo_9 routing_9" vType="DEFAULT_VEHTYPE" speedFactor="0.99" vaporized=""/>
    <tripinfo id="25" depart="25.00" departLane="gneE0_1" departPos="5.10" departSpeed="0.00" departDelay="0.00" arrival="132.00" arrivalLane="gneE0_1" arrivalPos="2000.00" arrivalSpeed="18.98" duration="107.00" routeLength="1994.90" waitingTime="0.00" waitingCount="0" stopTime="0.00" timeLoss="29.59" rerouteNo="1" devices="tripinfo_25 routing_25" vType="DEFAULT_VEHTYPE" speedFactor="0.96" vaporized=""/>
    <tripinfo id="12" depart="16.00" departLane="gneE0_4" departPos="5.10" departSpeed="0.00" departDelay="4.00" arrival="134.00" arrivalLane="gneE0_1" arrivalPos="2000.00" arrivalSpeed="20.16" duration="118.00" routeLength="1994.90" waitingTime="0.00" waitingCount="0" stopTime="0.00" timeLoss="44.35" rerouteNo="1" devices="tripinfo_12 routing_12" vType="DEFAULT_VEHTYPE" speedFactor="1.02" vaporized=""/>
    <tripinfo id="7" depart="7.00" departLane="gneE0_2" departPos="5.10" departSpeed="0.00" departDelay="0.00" arrival="135.00" arrivalLane="gneE0_2" arrivalPos="2000.00" arrivalSpeed="22.43" duration="128.00" routeLength="1994.90" waitingTime="0.00" waitingCount="0" stopTime="0.00" timeLoss="41.58" rerouteNo="1" devices="tripinfo_7 routing_7" vType="DEFAULT_VEHTYPE" speedFactor="0.87" vaporized=""/>
    <tripinfo id="10" depart="12.00" departLane="gneE0_2" departPos="5.10" departSpeed="0.00" departDelay="2.00" arrival="135.00" arrivalLane="gneE0_0" arrivalPos="2000.00" arrivalSpeed="19.78" duration="123.00" routeLength="1994.90" waitingTime="0.00" waitingCount="0" stopTime="0.00" timeLoss="24.68" rerouteNo="1" devices="tripinfo_10 routing_10" vType="DEFAULT_VEHTYPE" speedFactor="0.76" vaporized=""/>
    <tripinfo id="18" depart="23.00" departLane="gneE0_2" departPos="5.10" departSpeed="0.00" departDelay="5.00" arrival="136.00" arrivalLane="gneE0_2" arrivalPos="2000.00" arrivalSpeed="21.64" duration="113.00" routeLength="1994.90" waitingTime="0.00" waitingCount="0" stopTime="0.00" timeLoss="23.81" rerouteNo="1" devices="tripinfo_18 routing_18" vType="DEFAULT_VEHTYPE" speedFactor="0.84" vaporized=""/>
    <tripinfo id="27" depart="28.00" departLane="gneE0_0" departPos="5.10" departSpeed="0.00" departDelay="1.00" arrival="137.00" arrivalLane="gneE0_0" arrivalPos="2000.00" arrivalSpeed="21.85" duration="109.00" routeLength="1994.90" waitingTime="0.00" waitingCount="0" stopTime="0.00" timeLoss="27.20" rerouteNo="1" devices="tripinfo_27 routing_27" vType="DEFAULT_VEHTYPE" speedFactor="0.92" vaporized=""/>
    <tripinfo id="13" depart="13.00" departLane="gneE0_3" departPos="5.10" departSpeed="0.00" departDelay="0.00" arrival="138.00" arrivalLane="gneE0_2" arrivalPos="2000.00" arrivalSpeed="24.09" duration="125.00" routeLength="1994.90" waitingTime="0.00" waitingCount="0" stopTime="0.00" timeLoss="50.13" rerouteNo="1" devices="tripinfo_13 routing_13" vType="DEFAULT_VEHTYPE" speedFactor="1.00" vaporized=""/>
    <tripinfo id="36" depart="37.00" departLane="gneE0_3" departPos="5.10" departSpeed="0.00" departDelay="1.00" arrival="138.00" arrivalLane="gneE0_4" arrivalPos="2000.00" arrivalSpeed="18.85" duration="101.00" routeLength="1994.90" waitingTime="0.00" waitingCount="0" stopTime="0.00" timeLoss="19.74" rerouteNo="1" devices="tripinfo_36 routing_36" vType="DEFAULT_VEHTYPE" speedFactor="0.92" vaporized=""/>
    <tripinfo id="17" depart="17.00" departLane="gneE0_3" departPos="5.10" departSpeed="0.00" departDelay="0.00" arrival="140.00" arrivalLane="gneE0_2" arrivalPos="2000.00" arrivalSpeed="21.22" duration="123.00" routeLength="1994.90" waitingTime="0.00" waitingCount="0" stopTime="0.00" timeLoss="44.08" rerouteNo="1" devices="tripinfo_17 routing_17" vType="DEFAULT_VEHTYPE" speedFactor="0.95" vaporized=""/>
    <tripinfo id="26" depart="27.00" departLane="gneE0_2" departPos="5.10" departSpeed="0.00" departDelay="1.00" arrival="141.00" arrivalLane="gneE0_2" arrivalPos="2000.00" arrivalSpeed="24.88" duration="114.00" routeLength="1994.90" waitingTime="0.00" waitingCount="0" stopTime="0.00" timeLoss="37.40" rerouteNo="1" devices="tripinfo_26 routing_26" vType="DEFAULT_VEHTYPE" speedFactor="0.97" vaporized=""/>
    <tripinfo id="30" depart="30.00" departLane="gneE0_1" departPos="5.10" departSpeed="0.00" departDelay="0.00" arrival="141.00" arrivalLane="gneE0_1" arrivalPos="2000.00" arrivalSpeed="23.61" duration="111.00" routeLength="1994.90" waitingTime="0.00" waitingCount="0" stopTime="0.00" timeLoss="32.80" rerouteNo="1" devices="tripinfo_30 routing_30" vType="DEFAULT_VEHTYPE" speedFactor="0.96" vaporized=""/>
    <tripinfo id="31" depart="33.00" departLane="gneE0_1" departPos="5.10" departSpeed="0.00" departDelay="2.00" arrival="143.00" arrivalLane="gneE0_2" arrivalPos="2000.00" arrivalSpeed="25.23" duration="110.00" routeLength="1994.90" waitingTime="0.00" waitingCount="0" stopTime="0.00" timeLoss="31.74" rerouteNo="1" devices="tripinfo_31 routing_31" vType="DEFAULT_VEHTYPE" speedFactor="0.96" vaporized=""/>
    <tripinfo id="35" depart="36.00" departLane="gneE0_0" departPos="5.10" departSpeed="0.00" departDelay="1.00" arrival="144.00" arrivalLane="gneE0_0" arrivalPos="2000.00" arrivalSpeed="25.26" duration="108.00" routeLength="1994.90" waitingTime="0.00" waitingCount="0" stopTime="0.00" timeLoss="30.43" rerouteNo="1" devices="tripinfo_35 routing_35" vType="DEFAULT_VEHTYPE" speedFactor="0.97" vaporized=""/>
    <tripinfo id="38" depart="39.00" departLane="gneE0_0" departPos="5.10" departSpeed="0.00" departDelay="1.00" arrival="145.00" arrivalLane="gneE0_0" arrivalPos="2000.00" arrivalSpeed="25.52" duration="106.00" routeLength="1994.90" waitingTime="0.00" waitingCount="0" stopTime="0.00" timeLoss="30.77" rerouteNo="1" devices="tripinfo_38 routing_38" vType="DEFAULT_VEHTYPE" speedFactor="0.99" vaporized=""/>
    <tripinfo id="23" depart="24.00" departLane="gneE0_3" departPos="5.10" departSpeed="0.00" departDelay="1.00" arrival="146.00" arrivalLane="gneE0_2" arrivalPos="2000.00" arrivalSpeed="18.67" duration="122.00" routeLength="1994.90" waitingTime="0.00" waitingCount="0" stopTime="0.00" timeLoss="31.49" rerouteNo="1" devices="tripinfo_23 routing_23" vType="DEFAULT_VEHTYPE" speedFactor="0.82" vaporized=""/>
    <tripinfo id="20" depart="20.00" departLane="gneE0_3" departPos="5.10" departSpeed="0.00" departDelay="0.00" arrival="148.00" arrivalLane="gneE0_2" arrivalPos="2000.00" arrivalSpeed="23.88" duration="128.00" routeLength="1994.90" waitingTime="0.00" waitingCount="0" stopTime="0.00" timeLoss="51.64" rerouteNo="1" devices="tripinfo_20 routing_20" vType="DEFAULT_VEHTYPE" speedFactor="0.98" vaporized=""/>
    <tripinfo id="34" depart="36.00" departLane="gneE0_4" departPos="5.10" departSpeed="0.00" departDelay="2.00" arrival="149.00" arrivalLane="gneE0_3" arrivalPos="2000.00" arrivalSpeed="24.79" duration="113.00" routeLength="1994.90" waitingTime="0.00" waitingCount="0" stopTime="0.00" timeLoss="34.69" rerouteNo="1" devices="tripinfo_34 routing_34" vType="DEFAULT_VEHTYPE" speedFactor="0.96" vaporized=""/>
    <tripinfo id="37" depart="39.00" departLane="gneE0_2" departPos="5.10" departSpeed="0.00" departDelay="2.00" arrival="151.00" arrivalLane="gneE0_2" arrivalPos="2000.00" arrivalSpeed="20.76" duration="112.00" routeLength="1994.90" waitingTime="0.00" waitingCount="0" stopTime="0.00" timeLoss="38.94" rerouteNo="1" devices="tripinfo_37 routing_37" vType="DEFAULT_VEHTYPE" speedFactor="1.03" vaporized=""/>
    <tripinfo id="29" depart="31.00" departLane="gneE0_3" departPos="5.10" departSpeed="0.00" departDelay="2.00" arrival="151.00" arrivalLane="gneE0_3" arrivalPos="2000.00" arrivalSpeed="25.02" duration="120.00" routeLength="1994.90" waitingTime="0.00" waitingCount="0" stopTime="0.00" timeLoss="41.81" rerouteNo="1" devices="tripinfo_29 routing_29" vType="DEFAULT_VEHTYPE" speedFactor="0.96" vaporized=""/>
    <tripinfo id="32" depart="34.00" departLane="gneE0_3" departPos="5.10" departSpeed="0.00" departDelay="2.00" arrival="152.00" arrivalLane="gneE0_3" arrivalPos="2000.00" arrivalSpeed="27.03" duration="118.00" routeLength="1994.90" waitingTime="0.00" waitingCount="0" stopTime="0.00" timeLoss="46.90" rerouteNo="1" devices="tripinfo_32 routing_32" vType="DEFAULT_VEHTYPE" speedFactor="1.05" vaporized=""/>
    <tripinfo id="39" depart="41.00" departLane="gneE0_1" departPos="5.10" departSpeed="0.00" departDelay="2.00" arrival="152.00" arrivalLane="gneE0_1" arrivalPos="2000.00" arrivalSpeed="19.94" duration="111.00" routeLength="1994.90" waitingTime="0.00" waitingCount="0" stopTime="0.00" timeLoss="32.98" rerouteNo="1" devices="tripinfo_39 routing_39" vType="DEFAULT_VEHTYPE" speedFactor="0.96" vaporized=""/>
    <tripinfo id="45" depart="45.00" departLane="gneE0_0" departPos="5.10" departSpeed="0.00" departDelay="0.00" arrival="153.00" arrivalLane="gneE0_0" arrivalPos="2000.00" arrivalSpeed="21.59" duration="108.00" routeLength="1994.90" waitingTime="0.00" waitingCount="0" stopTime="0.00" timeLoss="35.17" rerouteNo="1" devices="tripinfo_45 routing_45" vType="DEFAULT_VEHTYPE" speedFactor="1.03" vaporized=""/>
    <tripinfo id="42" depart="43.00" departLane="gneE0_2" departPos="5.10" departSpeed="0.00" departDelay="1.00" arrival="154.00" arrivalLane="gneE0_1" arrivalPos="2000.00" arrivalSpeed="25.11" duration="111.00" routeLength="1994.90" waitingTime="0.00" waitingCount="0" stopTime="0.00" timeLoss="32.06" rerouteNo="1" devices="tripinfo_42 routing_42" vType="DEFAULT_VEHTYPE" speedFactor="0.95" vaporized=""/>
    <tripinfo id="47" depart="48.00" departLane="gneE0_1" departPos="5.10" departSpeed="0.00" departDelay="1.00" arrival="155.00" arrivalLane="gneE0_0" arrivalPos="2000.00" arrivalSpeed="17.92" duration="107.00" routeLength="1994.90" waitingTime="0.00" waitingCount="0" stopTime="0.00" timeLoss="25.79" rerouteNo="1" devices="tripinfo_47 routing_47" vType="DEFAULT_VEHTYPE" speedFactor="0.92" vaporized=""/>
    <tripinfo id="33" depart="35.00" departLane="gneE0_2" departPos="5.10" departSpeed="0.00" departDelay="2.00" arrival="156.00" arrivalLane="gneE0_3" arrivalPos="2000.00" arrivalSpeed="16.76" duration="121.00" routeLength="1994.90" waitingTime="0.00" waitingCount="0" stopTime="0.00" timeLoss="40.77" rerouteNo="1" devices="tripinfo_33 routing_33" vType="DEFAULT_VEHTYPE" speedFactor="0.93" vaporized=""/>
    <tripinfo id="40" depart="40.00" departLane="gneE0_4" departPos="5.10" departSpeed="0.00" departDelay="0.00" arrival="156.00" arrivalLane="gneE0_4" arrivalPos="2000.00" arrivalSpeed="18.85" duration="116.00" routeLength="1994.90" waitingTime="0.00" waitingCount="0" stopTime="0.00" timeLoss="24.81" rerouteNo="1" devices="tripinfo_40 routing_40" vType="DEFAULT_VEHTYPE" speedFactor="0.82" vaporized=""/>
    <tripinfo id="46" depart="46.00" departLane="gneE0_2" departPos="5.10" departSpeed="0.00" departDelay="0.00" arrival="156.00" arrivalLane="gneE0_0" arrivalPos="2000.00" arrivalSpeed="20.96" duration="110.00" routeLength="1994.90" waitingTime="0.00" waitingCount="0" stopTime="0.00" timeLoss="20.69" rerouteNo="1" devices="tripinfo_46 routing_46" vType="DEFAULT_VEHTYPE" speedFactor="0.83" vaporized=""/>
    <tripinfo id="49" depart="49.00" departLane="gneE0_2" departPos="5.10" departSpeed="0.00" departDelay="0.00" arrival="158.00" arrivalLane="gneE0_2" arrivalPos="2000.00" arrivalSpeed="21.15" duration="109.00" routeLength="1994.90" waitingTime="0.00" waitingCount="0" stopTime="0.00" timeLoss="32.90" rerouteNo="1" devices="tripinfo_49 routing_49" vType="DEFAULT_VEHTYPE" speedFactor="0.98" vaporized=""/>
    <tripinfo id="41" depart="42.00" departLane="gneE0_3" departPos="5.10" departSpeed="0.00" departDelay="1.00" arrival="158.00" arrivalLane="gneE0_3" arrivalPos="2000.00" arrivalSpeed="19.19" duration="116.00" routeLength="1994.90" waitingTime="0.00" waitingCount="0" stopTime="0.00" timeLoss="33.38" rerouteNo="1" devices="tripinfo_41 routing_41" vType="DEFAULT_VEHTYPE" speedFactor="0.90" vaporized=""/>
    <tripinfo id="51" depart="51.00" departLane="gneE0_1" departPos="5.10" departSpeed="0.00" departDelay="0.00" arrival="159.00" arrivalLane="gneE0_1" arrivalPos="2000.00" arrivalSpeed="21.13" duration="108.00" routeLength="1994.90" waitingTime="0.00" waitingCount="0" stopTime="0.00" timeLoss="34.76" rerouteNo="1" devices="tripinfo_51 routing_51" vType="DEFAULT_VEHTYPE" speedFactor="1.02" vaporized=""/>
    <tripinfo id="50" depart="52.00" departLane="gneE0_2" departPos="5.10" departSpeed="0.00" departDelay="2.00" arrival="160.00" arrivalLane="gneE0_2" arrivalPos="2000.00" arrivalSpeed="25.16" duration="108.00" routeLength="1994.90" waitingTime="0.00" waitingCount="0" stopTime="0.00" timeLoss="32.34" rerouteNo="1" devices="tripinfo_50 routing_50" vType="DEFAULT_VEHTYPE" speedFactor="0.99" vaporized=""/>
    <tripinfo id="44" depart="46.00" departLane="gneE0_4" departPos="5.10" departSpeed="0.00" departDelay="2.00" arrival="160.00" arrivalLane="gneE0_4" arrivalPos="2000.00" arrivalSpeed="18.60" duration="114.00" routeLength="1994.90" waitingTime="0.00" waitingCount="0" stopTime="0.00" timeLoss="53.63" rerouteNo="1" devices="tripinfo_44 routing_44" vType="DEFAULT_VEHTYPE" speedFactor="1.24" vaporized=""/>
    <tripinfo id="53" depart="55.00" departLane="gneE0_0" departPos="5.10" departSpeed="0.00" departDelay="2.00" arrival="160.00" arrivalLane="gneE0_0" arrivalPos="2000.00" arrivalSpeed="20.76" duration="105.00" routeLength="1994.90" waitingTime="0.00" waitingCount="0" stopTime="0.00" timeLoss="29.21" rerouteNo="1" devices="tripinfo_53 routing_53" vType="DEFAULT_VEHTYPE" speedFactor="0.98" vaporized=""/>
    <tripinfo id="54" depart="54.00" departLane="gneE0_1" departPos="5.10" departSpeed="0.00" departDelay="0.00" arrival="161.00" arrivalLane="gneE0_1" arrivalPos="2000.00" arrivalSpeed="25.20" duration="107.00" routeLength="1994.90" waitingTime="0.00" waitingCount="0" stopTime="0.00" timeLoss="39.77" rerouteNo="1" devices="tripinfo_54 routing_54" vType="DEFAULT_VEHTYPE" speedFactor="1.11" vaporized=""/>
    <tripinfo id="43" depart="43.00" departLane="gneE0_4" departPos="5.10" departSpeed="0.00" departDelay="0.00" arrival="162.00" arrivalLane="gneE0_3" arrivalPos="2000.00" arrivalSpeed="15.24" duration="119.00" routeLength="1994.90" waitingTime="0.00" waitingCount="0" stopTime="0.00" timeLoss="53.24" rerouteNo="1" devices="tripinfo_43 routing_43" vType="DEFAULT_VEHTYPE" speedFactor="1.13" vaporized=""/>
    <tripinfo id="55" depart="55.00" departLane="gneE0_2" departPos="5.10" departSpeed="0.00" departDelay="0.00" arrival="163.00" arrivalLane="gneE0_2" arrivalPos="2000.00" arrivalSpeed="19.68" duration="108.00" routeLength="1994.90" waitingTime="0.00" waitingCount="0" stopTime="0.00" timeLoss="42.88" rerouteNo="1" devices="tripinfo_55 routing_55" vType="DEFAULT_VEHTYPE" speedFactor="1.15" vaporized=""/>
    <tripinfo id="56" depart="58.00" departLane="gneE0_1" departPos="5.10" departSpeed="0.00" departDelay="2.00" arrival="163.00" arrivalLane="gneE0_1" arrivalPos="2000.00" arrivalSpeed="20.17" duration="105.00" routeLength="1994.90" waitingTime="0.00" waitingCount="0" stopTime="0.00" timeLoss="33.26" rerouteNo="1" devices="tripinfo_56 routing_56" vType="DEFAULT_VEHTYPE" speedFactor="1.04" vaporized=""/>
    <tripinfo id="48" depart="49.00" departLane="gneE0_4" departPos="5.10" departSpeed="0.00" departDelay="1.00" arrival="164.00" arrivalLane="gneE0_3" arrivalPos="2000.00" arrivalSpeed="15.95" duration="115.00" routeLength="1994.90" waitingTime="0.00" waitingCount="0" stopTime="0.00" timeLoss="49.49" rerouteNo="1" devices="tripinfo_48 routing_48" vType="DEFAULT_VEHTYPE" speedFactor="1.14" vaporized=""/>
    <tripinfo id="57" depart="58.00" departLane="gneE0_0" departPos="5.10" departSpeed="0.00" departDelay="1.00" arrival="164.00" arrivalLane="gneE0_0" arrivalPos="2000.00" arrivalSpeed="19.38" duration="106.00" routeLength="1994.90" waitingTime="0.00" waitingCount="0" stopTime="0.00" timeLoss="35.33" rerouteNo="1" devices="tripinfo_57 routing_57" vType="DEFAULT_VEHTYPE" speedFactor="1.05" vaporized=""/>
    <tripinfo id="60" depart="60.00" departLane="gneE0_2" departPos="5.10" departSpeed="0.00" departDelay="0.00" arrival="165.00" arrivalLane="gneE0_2" arrivalPos="2000.00" arrivalSpeed="18.90" duration="105.00" routeLength="1994.90" waitingTime="0.00" waitingCount="0" stopTime="0.00" timeLoss="35.75" rerouteNo="1" devices="tripinfo_60 routing_60" vType="DEFAULT_VEHTYPE" speedFactor="1.08" vaporized=""/>
    <tripinfo id="61" depart="61.00" departLane="gneE0_3" departPos="5.10" departSpeed="0.00" departDelay="0.00" arrival="166.00" arrivalLane="gneE0_1" arrivalPos="2000.00" arrivalSpeed="18.64" duration="105.00" routeLength="1994.90" waitingTime="0.00" waitingCount="0" stopTime="0.00" timeLoss="31.16" rerouteNo="1" devices="tripinfo_61 routing_61" vType="DEFAULT_VEHTYPE" speedFactor="1.01" vaporized=""/>
    <tripinfo id="59" depart="61.00" departLane="gneE0_0" departPos="5.10" departSpeed="0.00" departDelay="2.00" arrival="167.00" arrivalLane="gneE0_0" arrivalPos="2000.00" arrivalSpeed="19.90" duration="106.00" routeLength="1994.90" waitingTime="0.00" waitingCount="0" stopTime="0.00" timeLoss="32.36" rerouteNo="1" devices="tripinfo_59 routing_59" vType="DEFAULT_VEHTYPE" speedFactor="1.02" vaporized=""/>
    <tripinfo id="66" depart="66.00" departLane="gneE0_1" departPos="5.10" departSpeed="0.00" departDelay="0.00" arrival="168.00" arrivalLane="gneE0_1" arrivalPos="2000.00" arrivalSpeed="21.24" duration="102.00" routeLength="1994.90" waitingTime="0.00" waitingCount="0" stopTime="0.00" timeLoss="31.27" rerouteNo="1" devices="tripinfo_66 routing_66" vType="DEFAULT_VEHTYPE" speedFactor="1.06" vaporized=""/>
    <tripinfo id="64" depart="64.00" departLane="gneE0_0" departPos="5.10" departSpeed="0.00" departDelay="0.00" arrival="168.00" arrivalLane="gneE0_0" arrivalPos="2000.00" arrivalSpeed="19.21" duration="104.00" routeLength="1994.90" waitingTime="0.00" waitingCount="0" stopTime="0.00" timeLoss="17.91" rerouteNo="1" devices="tripinfo_64 routing_64" vType="DEFAULT_VEHTYPE" speedFactor="0.87" vaporized=""/>
    <tripinfo id="68" depart="68.00" departLane="gneE0_2" departPos="5.10" departSpeed="0.00" departDelay="0.00" arrival="170.00" arrivalLane="gneE0_1" arrivalPos="2000.00" arrivalSpeed="22.13" duration="102.00" routeLength="1994.90" waitingTime="0.00" waitingCount="0" stopTime="0.00" timeLoss="12.18" rerouteNo="1" devices="tripinfo_68 routing_68" vType="DEFAULT_VEHTYPE" speedFactor="0.83" vaporized=""/>
    <tripinfo id="71" depart="71.00" departLane="gneE0_0" departPos="5.10" departSpeed="0.00" departDelay="0.00" arrival="170.00" arrivalLane="gneE0_0" arrivalPos="2000.00" arrivalSpeed="22.13" duration="99.00" routeLength="1994.90" waitingTime="0.00" waitingCount="0" stopTime="0.00" timeLoss="21.75" rerouteNo="1" devices="tripinfo_71 routing_71" vType="DEFAULT_VEHTYPE" speedFactor="0.97" vaporized=""/>
    <tripinfo id="73" depart="74.00" departLane="gneE0_0" departPos="5.10" departSpeed="0.00" departDelay="1.00" arrival="172.00" arrivalLane="gneE0_0" arrivalPos="2000.00" arrivalSpeed="26.18" duration="98.00" routeLength="1994.90" waitingTime="0.00" waitingCount="0" stopTime="0.00" timeLoss="24.29" rerouteNo="1" devices="tripinfo_73 routing_73" vType="DEFAULT_VEHTYPE" speedFactor="1.02" vaporized=""/>
    <tripinfo id="76" depart="77.00" departLane="gneE0_1" departPos="5.10" departSpeed="0.00" departDelay="1.00" arrival="173.00" arrivalLane="gneE0_0" arrivalPos="2000.00" arrivalSpeed="21.32" duration="96.00" routeLength="1994.90" waitingTime="0.00" waitingCount="0" stopTime="0.00" timeLoss="19.55" rerouteNo="1" devices="tripinfo_76 routing_76" vType="DEFAULT_VEHTYPE" speedFactor="0.97" vaporized=""/>
    <tripinfo id="78" depart="78.00" departLane="gneE0_0" departPos="5.10" departSpeed="0.00" departDelay="0.00" arrival="175.00" arrivalLane="gneE0_0" arrivalPos="2000.00" arrivalSpeed="23.25" duration="97.00" routeLength="1994.90" waitingTime="0.00" waitingCount="0" stopTime="0.00" timeLoss="14.85" rerouteNo="1" devices="tripinfo_78 routing_78" vType="DEFAULT_VEHTYPE" speedFactor="0.91" vaporized=""/>
    <tripinfo id="81" depart="82.00" departLane="gneE0_0" departPos="5.10" departSpeed="0.00" departDelay="1.00" arrival="176.00" arrivalLane="gneE0_0" arrivalPos="2000.00" arrivalSpeed="24.71" duration="94.00" routeLength="1994.90" waitingTime="0.00" waitingCount="0" stopTime="0.00" timeLoss="26.67" rerouteNo="1" devices="tripinfo_81 routing_81" vType="DEFAULT_VEHTYPE" speedFactor="1.11" vaporized=""/>
    <tripinfo id="52" depart="53.00" departLane="gneE0_4" departPos="5.10" departSpeed="0.00" departDelay="1.00" arrival="177.00" arrivalLane="gneE0_4" arrivalPos="2000.00" arrivalSpeed="20.77" duration="124.00" routeLength="1994.90" waitingTime="0.00" waitingCount="0" stopTime="0.00" timeLoss="45.97" rerouteNo="1" devices="tripinfo_52 routing_52" vType="DEFAULT_VEHTYPE" speedFactor="0.95" vaporized=""/>
    <tripinfo id="65" depart="66.00" departLane="gneE0_3" departPos="5.10" departSpeed="0.00" departDelay="1.00" arrival="179.00" arrivalLane="gneE0_2" arrivalPos="2000.00" arrivalSpeed="17.88" duration="113.00" routeLength="1994.90" waitingTime="0.00" waitingCount="0" stopTime="0.00" timeLoss="41.28" rerouteNo="1" devices="tripinfo_65 routing_65" vType="DEFAULT_VEHTYPE" speedFactor="1.04" vaporized=""/>