<?xml version="1.0" encoding="UTF-8"?>

<!-- generated on Fri Mar 29 18:06:14 2019 by Eclipse SUMO Version 1.0.1
<configuration xmlns:xsi="http://www.w3.org/2001/XMLSchema-instance" xsi:noNamespaceSchemaLocation="http://sumo.dlr.de/xsd/sumoConfiguration.xsd">

    <input>
        <net-file value="../Resources/FiveLanes/fivelanes.net.xml"/>
        <route-files value="../Resources/FiveLanes/1000v-trips.trips.xml"/>
    </input>

    <output>
        <output-prefix value="1"/>
        <tripinfo-output value="tripinfos.xml"/>
        <lanechange-output value="lanechange.xml"/>
    </output>

    <processing>
        <ignore-route-errors value="true"/>
    </processing>

    <report>
        <verbose value="true"/>
        <duration-log.statistics value="true"/>
        <no-step-log value="true"/>
    </report>

    <traci_server>
        <remote-port value="57735"/>
    </traci_server>

    <random_number>
        <seed value="65257"/>
    </random_number>

    <gui_only>
        <quit-on-end value="true"/>
        <start value="true"/>
    </gui_only>

</configuration>
-->

<tripinfos xmlns:xsi="http://www.w3.org/2001/XMLSchema-instance" xsi:noNamespaceSchemaLocation="http://sumo.dlr.de/xsd/tripinfo_file.xsd">
    <tripinfo id="2" depart="2.00" departLane="gneE0_0" departPos="5.10" departSpeed="0.00" departDelay="0.00" arrival="78.00" arrivalLane="gneE0_0" arrivalPos="2000.00" arrivalSpeed="28.81" duration="76.00" routeLength="1994.90" waitingTime="0.00" waitingCount="0" stopTime="0.00" timeLoss="8.71" rerouteNo="1" devices="tripinfo_2 routing_2" vType="DEFAULT_VEHTYPE" speedFactor="1.11" vaporized=""/>
    <tripinfo id="4" depart="4.00" departLane="gneE0_4" departPos="5.10" departSpeed="0.00" departDelay="0.00" arrival="91.00" arrivalLane="gneE0_2" arrivalPos="2000.00" arrivalSpeed="24.56" duration="87.00" routeLength="1994.90" waitingTime="0.00" waitingCount="0" stopTime="0.00" timeLoss="7.92" rerouteNo="1" devices="tripinfo_4 routing_4" vType="DEFAULT_VEHTYPE" speedFactor="0.95" vaporized=""/>
    <tripinfo id="8" depart="8.00" departLane="gneE0_4" departPos="5.10" departSpeed="0.00" departDelay="0.00" arrival="92.00" arrivalLane="gneE0_4" arrivalPos="2000.00" arrivalSpeed="25.65" duration="84.00" routeLength="1994.90" waitingTime="0.00" waitingCount="0" stopTime="0.00" timeLoss="6.12" rerouteNo="1" devices="tripinfo_8 routing_8" vType="DEFAULT_VEHTYPE" speedFactor="0.96" vaporized=""/>
    <tripinfo id="16" depart="16.00" departLane="gneE0_4" departPos="5.10" departSpeed="0.00" departDelay="0.00" arrival="95.00" arrivalLane="gneE0_4" arrivalPos="2000.00" arrivalSpeed="29.56" duration="79.00" routeLength="1994.90" waitingTime="0.00" waitingCount="0" stopTime="0.00" timeLoss="11.68" rerouteNo="1" devices="tripinfo_16 routing_16" vType="DEFAULT_VEHTYPE" speedFactor="1.11" vaporized=""/>
    <tripinfo id="11" depart="11.00" departLane="gneE0_4" departPos="5.10" departSpeed="0.00" departDelay="0.00" arrival="96.00" arrivalLane="gneE0_3" arrivalPos="2000.00" arrivalSpeed="22.91" duration="85.00" routeLength="1994.90" waitingTime="0.00" waitingCount="0" stopTime="0.00" timeLoss="8.96" rerouteNo="1" devices="tripinfo_11 routing_11" vType="DEFAULT_VEHTYPE" speedFactor="0.99" vaporized=""/>
    <tripinfo id="24" depart="25.00" departLane="gneE0_4" departPos="5.10" departSpeed="0.00" departDelay="1.00" arrival="106.00" arrivalLane="gneE0_4" arrivalPos="2000.00" arrivalSpeed="25.90" duration="81.00" routeLength="1994.90" waitingTime="0.00" waitingCount="0" stopTime="0.00" timeLoss="12.60" rerouteNo="1" devices="tripinfo_24 routing_24" vType="DEFAULT_VEHTYPE" speedFactor="1.09" vaporized=""/>
    <tripinfo id="29" depart="32.00" departLane="gneE0_4" departPos="5.10" departSpeed="0.00" departDelay="3.00" arrival="112.00" arrivalLane="gneE0_3" arrivalPos="2000.00" arrivalSpeed="27.55" duration="80.00" routeLength="1994.90" waitingTime="0.00" waitingCount="0" stopTime="0.00" timeLoss="8.31" rerouteNo="1" devices="tripinfo_29 routing_29" vType="DEFAULT_VEHTYPE" speedFactor="1.05" vaporized=""/>
    <tripinfo id="5" depart="5.00" departLane="gneE0_1" departPos="5.10" departSpeed="0.00" departDelay="0.00" arrival="113.00" arrivalLane="gneE0_1" arrivalPos="2000.00" arrivalSpeed="19.42" duration="108.00" routeLength="1994.90" waitingTime="0.00" waitingCount="0" stopTime="0.00" timeLoss="41.80" rerouteNo="1" devices="tripinfo_5 routing_5" vType="DEFAULT_VEHTYPE" speedFactor="1.12" vaporized=""/>
    <tripinfo id="10" depart="11.00" departLane="gneE0_1" departPos="5.10" departSpeed="0.00" departDelay="1.00" arrival="116.00" arrivalLane="gneE0_0" arrivalPos="2000.00" arrivalSpeed="20.20" duration="105.00" routeLength="1994.90" waitingTime="0.00" waitingCount="0" stopTime="0.00" timeLoss="15.13" rerouteNo="1" devices="tripinfo_10 routing_10" vType="DEFAULT_VEHTYPE" speedFactor="0.83" vaporized=""/>
    <tripinfo id="1" depart="1.00" departLane="gneE0_2" departPos="5.10" departSpeed="0.00" departDelay="0.00" arrival="117.00" arrivalLane="gneE0_1" arrivalPos="2000.00" arrivalSpeed="25.24" duration="116.00" routeLength="1994.90" waitingTime="0.00" waitingCount="0" stopTime="0.00" timeLoss="39.50" rerouteNo="1" devices="tripinfo_1 routing_1" vType="DEFAULT_VEHTYPE" speedFactor="0.98" vaporized=""/>
    <tripinfo id="9" depart="10.00" departLane="gneE0_0" departPos="5.10" departSpeed="0.00" departDelay="1.00" arrival="117.00" arrivalLane="gneE0_0" arrivalPos="2000.00" arrivalSpeed="19.22" duration="107.00" routeLength="1994.90" waitingTime="0.00" waitingCount="0" stopTime="0.00" timeLoss="47.42" rerouteNo="1" devices="tripinfo_9 routing_9" vType="DEFAULT_VEHTYPE" speedFactor="1.25" vaporized=""/>
    <tripinfo id="12" depart="13.00" departLane="gneE0_1" departPos="5.10" departSpeed="0.00" departDelay="1.00" arrival="118.00" arrivalLane="gneE0_1" arrivalPos="2000.00" arrivalSpeed="23.82" duration="105.00" routeLength="1994.90" waitingTime="0.00" waitingCount="0" stopTime="0.00" timeLoss="33.40" rerouteNo="1" devices="tripinfo_12 routing_12" vType="DEFAULT_VEHTYPE" speedFactor="1.04" vaporized=""/>
    <tripinfo id="14" depart="14.00" departLane="gneE0_0" departPos="5.10" departSpeed="0.00" departDelay="0.00" arrival="120.00" arrivalLane="gneE0_0" arrivalPos="2000.00" arrivalSpeed="26.41" duration="106.00" routeLength="1994.90" waitingTime="0.00" waitingCount="0" stopTime="0.00" timeLoss="39.84" rerouteNo="1" devices="tripinfo_14 routing_14" vType="DEFAULT_VEHTYPE" speedFactor="1.14" vaporized=""/>
    <tripinfo id="0" depart="0.00" departLane="gneE0_3" departPos="5.10" departSpeed="0.00" departDelay="0.00" arrival="120.00" arrivalLane="gneE0_2" arrivalPos="2000.00" arrivalSpeed="22.45" duration="120.00" routeLength="1994.90" waitingTime="0.00" waitingCount="0" stopTime="0.00" timeLoss="32.05" rerouteNo="1" devices="tripinfo_0 routing_0" vType="DEFAULT_VEHTYPE" speedFactor="0.85" vaporized=""/>
    <tripinfo id="17" depart="17.00" departLane="gneE0_0" departPos="5.10" departSpeed="0.00" departDelay="0.00" arrival="121.00" arrivalLane="gneE0_0" arrivalPos="2000.00" arrivalSpeed="24.95" duration="104.00" routeLength="1994.90" waitingTime="0.00" waitingCount="0" stopTime="0.00" timeLoss="26.09" rerouteNo="1" devices="tripinfo_17 routing_17" vType="DEFAULT_VEHTYPE" speedFactor="0.96" vaporized=""/>
    <tripinfo id="3" depart="4.00" departLane="gneE0_3" departPos="5.10" departSpeed="0.00" departDelay="1.00" arrival="123.00" arrivalLane="gneE0_3" arrivalPos="2000.00" arrivalSpeed="29.81" duration="119.00" routeLength="1994.90" waitingTime="0.00" waitingCount="0" stopTime="0.00" timeLoss="52.71" rerouteNo="1" devices="tripinfo_3 routing_3" vType="DEFAULT_VEHTYPE" speedFactor="1.12" vaporized=""/>
    <tripinfo id="37" depart="37.00" departLane="gneE0_4" departPos="5.10" departSpeed="0.00" departDelay="0.00" arrival="126.00" arrivalLane="gneE0_3" arrivalPos="2000.00" arrivalSpeed="26.30" duration="89.00" routeLength="1994.90" waitingTime="0.00" waitingCount="0" stopTime="0.00" timeLoss="13.59" rerouteNo="1" devices="tripinfo_37 routing_37" vType="DEFAULT_VEHTYPE" speedFactor="0.99" vaporized=""/>
    <tripinfo id="6" depart="7.00" departLane="gneE0_3" departPos="5.10" departSpeed="0.00" departDelay="1.00" arrival="130.00" arrivalLane="gneE0_4" arrivalPos="2000.00" arrivalSpeed="19.59" duration="123.00" routeLength="1994.90" waitingTime="0.00" waitingCount="0" stopTime="0.00" timeLoss="48.53" rerouteNo="1" devices="tripinfo_6 routing_6" vType="DEFAULT_VEHTYPE" speedFactor="1.00" vaporized=""/>
    <tripinfo id="48" depart="48.00" departLane="gneE0_4" departPos="5.10" departSpeed="0.00" departDelay="0.00" arrival="132.00" arrivalLane="gneE0_4" arrivalPos="2000.00" arrivalSpeed="23.99" duration="84.00" routeLength="1994.90" waitingTime="0.00" waitingCount="0" stopTime="0.00" timeLoss="12.41" rerouteNo="1" devices="tripinfo_48 routing_48" vType="DEFAULT_VEHTYPE" speedFactor="1.05" vaporized=""/>
    <tripinfo id="7" depart="7.00" departLane="gneE0_2" departPos="5.10" departSpeed="0.00" departDelay="0.00" arrival="132.00" arrivalLane="gneE0_3" arrivalPos="2000.00" arrivalSpeed="19.39" duration="125.00" routeLength="1994.90" waitingTime="0.00" waitingCount="0" stopTime="0.00" timeLoss="52.71" rerouteNo="1" devices="tripinfo_7 routing_7" vType="DEFAULT_VEHTYPE" speedFactor="1.04" vaporized=""/>
    <tripinfo id="20" depart="20.00" departLane="gneE0_0" departPos="5.10" departSpeed="0.00" departDelay="0.00" arrival="134.00" arrivalLane="gneE0_0" arrivalPos="2000.00" arrivalSpeed="24.61" duration="114.00" routeLength="1994.90" waitingTime="0.00" waitingCount="0" stopTime="0.00" timeLoss="35.82" rerouteNo="1" devices="tripinfo_20 routing_20" vType="DEFAULT_VEHTYPE" speedFactor="0.96" vaporized=""/>
    <tripinfo id="13" depart="13.00" departLane="gneE0_3" departPos="5.10" departSpeed="0.00" departDelay="0.00" arrival="134.00" arrivalLane="gneE0_3" arrivalPos="2000.00" arrivalSpeed="21.29" duration="121.00" routeLength="1994.90" waitingTime="0.00" waitingCount="0" stopTime="0.00" timeLoss="50.01" rerouteNo="1" devices="tripinfo_13 routing_13" vType="DEFAULT_VEHTYPE" speedFactor="1.05" vaporized=""/>
    <tripinfo id="22" depart="22.00" departLane="gneE0_2" departPos="5.10" departSpeed="0.00" departDelay="0.00" arrival="135.00" arrivalLane="gneE0_1" arrivalPos="2000.00" arrivalSpeed="21.27" duration="113.00" routeLength="1994.90" waitingTime="0.00" waitingCount="0" stopTime="0.00" timeLoss="45.62" rerouteNo="1" devices="tripinfo_22 routing_22" vType="DEFAULT_VEHTYPE" speedFactor="1.11" vaporized=""/>
    <tripinfo id="19" depart="19.00" departLane="gneE0_3" departPos="5.10" departSpeed="0.00" departDelay="0.00" arrival="135.00" arrivalLane="gneE0_2" arrivalPos="2000.00" arrivalSpeed="21.78" duration="116.00" routeLength="1994.90" waitingTime="0.00" waitingCount="0" stopTime="0.00" timeLoss="37.70" rerouteNo="1" devices="tripinfo_19 routing_19" vType="DEFAULT_VEHTYPE" speedFactor="0.95" vaporized=""/>
    <tripinfo id="15" depart="16.00" departLane="gneE0_1" departPos="5.10" departSpeed="0.00" departDelay="1.00" arrival="136.00" arrivalLane="gneE0_0" arrivalPos="2000.00" arrivalSpeed="23.24" duration="120.00" routeLength="1994.90" waitingTime="0.00" waitingCount="0" stopTime="0.00" timeLoss="40.11" rerouteNo="1" devices="tripinfo_15 routing_15" vType="DEFAULT_VEHTYPE" speedFactor="0.94" vaporized=""/>
    <tripinfo id="51" depart="51.00" departLane="gneE0_4" departPos="5.10" departSpeed="0.00" departDelay="0.00" arrival="137.00" arrivalLane="gneE0_4" arrivalPos="2000.00" arrivalSpeed="25.03" duration="86.00" routeLength="1994.90" waitingTime="0.00" waitingCount="0" stopTime="0.00" timeLoss="8.72" rerouteNo="1" devices="tripinfo_51 routing_51" vType="DEFAULT_VEHTYPE" speedFactor="0.97" vaporized=""/>
    <tripinfo id="26" depart="26.00" departLane="gneE0_2" departPos="5.10" departSpeed="0.00" departDelay="0.00" arrival="137.00" arrivalLane="gneE0_2" arrivalPos="2000.00" arrivalSpeed="17.52" duration="111.00" routeLength="1994.90" waitingTime="0.00" waitingCount="0" stopTime="0.00" timeLoss="34.24" rerouteNo="1" devices="tripinfo_26 routing_26" vType="DEFAULT_VEHTYPE" speedFactor="0.97" vaporized=""/>
    <tripinfo id="28" depart="28.00" departLane="gneE0_3" departPos="5.10" departSpeed="0.00" departDelay="0.00" arrival="137.00" arrivalLane="gneE0_3" arrivalPos="2000.00" arrivalSpeed="27.31" duration="109.00" routeLength="1994.90" waitingTime="0.00" waitingCount="0" stopTime="0.00" timeLoss="42.31" rerouteNo="1" devices="tripinfo_28 routing_28" vType="DEFAULT_VEHTYPE" speedFactor="1.13" vaporized=""/>
    <tripinfo id="23" depart="23.00" departLane="gneE0_0" departPos="5.10" departSpeed="0.00" departDelay="0.00" arrival="138.00" arrivalLane="gneE0_0" arrivalPos="2000.00" arrivalSpeed="24.05" duration="115.00" routeLength="1994.90" waitingTime="0.00" waitingCount="0" stopTime="0.00" timeLoss="32.04" rerouteNo="1" devices="tripinfo_23 routing_23" vType="DEFAULT_VEHTYPE" speedFactor="0.90" vaporized=""/>
    <tripinfo id="33" depart="33.00" departLane="gneE0_3" departPos="5.10" departSpeed="0.00" departDelay="0.00" arrival="138.00" arrivalLane="gneE0_3" arrivalPos="2000.00" arrivalSpeed="26.24" duration="105.00" routeLength="1994.90" waitingTime="0.00" waitingCount="0" stopTime="0.00" timeLoss="30.11" rerouteNo="1" devices="tripinfo_33 routing_33" vType="DEFAULT_VEHTYPE" speedFactor="1.00" vaporized=""/>
    <tripinfo id="18" depart="19.00" departLane="gneE0_1" departPos="5.10" departSpeed="0.00" departDelay="1.00" arrival="139.00" arrivalLane="gneE0_1" arrivalPos="2000.00" arrivalSpeed="19.88" duration="120.00" routeLength="1994.90" waitingTime="0.00" waitingCount="0" stopTime="0.00" timeLoss="45.09" rerouteNo="1" devices="tripinfo_18 routing_18" vType="DEFAULT_VEHTYPE" speedFactor="1.00" vaporized=""/>
    <tripinfo id="27" depart="29.00" departLane="gneE0_2" departPos="5.10" departSpeed="0.00" departDelay="2.00" arrival="139.00" arrivalLane="gneE0_2" arrivalPos="2000.00" arrivalSpeed="22.75" duration="110.00" routeLength="1994.90" waitingTime="0.00" waitingCount="0" stopTime="0.00" timeLoss="27.12" rerouteNo="1" devices="tripinfo_27 routing_27" vType="DEFAULT_VEHTYPE" speedFactor="0.90" vaporized=""/>
    <tripinfo id="57" depart="58.00" departLane="gneE0_4" departPos="5.10" departSpeed="0.00" departDelay="1.00" arrival="140.00" arrivalLane="gneE0_4" arrivalPos="2000.00" arrivalSpeed="26.92" duration="82.00" routeLength="1994.90" waitingTime="0.00" waitingCount="0" stopTime="0.00" timeLoss="9.73" rerouteNo="1" devices="tripinfo_57 routing_57" vType="DEFAULT_VEHTYPE" speedFactor="1.03" vaporized=""/>
    <tripinfo id="36" depart="37.00" departLane="gneE0_3" departPos="5.10" departSpeed="0.00" departDelay="1.00" arrival="140.00" arrivalLane="gneE0_3" arrivalPos="2000.00" arrivalSpeed="24.47" duration="103.00" routeLength="1994.90" waitingTime="0.00" waitingCount="0" stopTime="0.00" timeLoss="23.31" rerouteNo="1" devices="tripinfo_36 routing_36" vType="DEFAULT_VEHTYPE" speedFactor="0.94" vaporized=""/>
    <tripinfo id="21" depart="22.00" departLane="gneE0_1" departPos="5.10" departSpeed="0.00" departDelay="1.00" arrival="141.00" arrivalLane="gneE0_1" arrivalPos="2000.00" arrivalSpeed="22.11" duration="119.00" routeLength="1994.90" waitingTime="0.00" waitingCount="0" stopTime="0.00" timeLoss="29.31" rerouteNo="1" devices="tripinfo_21 routing_21" vType="DEFAULT_VEHTYPE" speedFactor="0.84" vaporized=""/>
    <tripinfo id="31" depart="31.00" departLane="gneE0_0" departPos="5.10" departSpeed="0.00" departDelay="0.00" arrival="141.00" arrivalLane="gneE0_0" arrivalPos="2000.00" arrivalSpeed="20.38" duration="110.00" routeLength="1994.90" waitingTime="0.00" waitingCount="0" stopTime="0.00" timeLoss="28.30" rerouteNo="1" devices="tripinfo_31 routing_31" vType="DEFAULT_VEHTYPE" speedFactor="0.91" vaporized=""/>
    <tripinfo id="38" depart="38.00" departLane="gneE0_2" departPos="5.10" departSpeed="0.00" departDelay="0.00" arrival="141.00" arrivalLane="gneE0_2" arrivalPos="2000.00" arrivalSpeed="26.00" duration="103.00" routeLength="1994.90" waitingTime="0.00" waitingCount="0" stopTime="0.00" timeLoss="36.57" rerouteNo="1" devices="tripinfo_38 routing_38" vType="DEFAULT_VEHTYPE" speedFactor="1.13" vaporized=""/>
    <tripinfo id="42" depart="42.00" departLane="gneE0_3" departPos="5.10" departSpeed="0.00" departDelay="0.00" arrival="141.00" arrivalLane="gneE0_3" arrivalPos="2000.00" arrivalSpeed="27.90" duration="99.00" routeLength="1994.90" waitingTime="0.00" waitingCount="0" stopTime="0.00" timeLoss="28.60" rerouteNo="1" devices="tripinfo_42 routing_42" vType="DEFAULT_VEHTYPE" speedFactor="1.06" vaporized=""/>
    <tripinfo id="25" depart="26.00" departLane="gneE0_1" departPos="5.10" departSpeed="0.00" departDelay="1.00" arrival="142.00" arrivalLane="gneE0_1" arrivalPos="2000.00" arrivalSpeed="22.34" duration="116.00" routeLength="1994.90" waitingTime="0.00" waitingCount="0" stopTime="0.00" timeLoss="36.48" rerouteNo="1" devices="tripinfo_25 routing_25" vType="DEFAULT_VEHTYPE" speedFactor="0.94" vaporized=""/>
    <tripinfo id="34" depart="35.00" departLane="gneE0_0" departPos="5.10" departSpeed="0.00" departDelay="1.00" arrival="143.00" arrivalLane="gneE0_0" arrivalPos="2000.00" arrivalSpeed="23.47" duration="108.00" routeLength="1994.90" waitingTime="0.00" waitingCount="0" stopTime="0.00" timeLoss="22.93" rerouteNo="1" devices="tripinfo_34 routing_34" vType="DEFAULT_VEHTYPE" speedFactor="0.88" vaporized=""/>
    <tripinfo id="30" depart="31.00" departLane="gneE0_1" departPos="5.10" departSpeed="0.00" departDelay="1.00" arrival="144.00" arrivalLane="gneE0_1" arrivalPos="2000.00" arrivalSpeed="24.27" duration="113.00" routeLength="1994.90" waitingTime="0.00" waitingCount="0" stopTime="0.00" timeLoss="32.93" rerouteNo="1" devices="tripinfo_30 routing_30" vType="DEFAULT_VEHTYPE" speedFactor="0.94" vaporized=""/>
    <tripinfo id="32" depart="35.00" departLane="gneE0_2" departPos="5.10" departSpeed="0.00" departDelay="3.00" arrival="145.00" arrivalLane="gneE0_1" arrivalPos="2000.00" arrivalSpeed="22.88" duration="110.00" routeLength="1994.90" waitingTime="0.00" waitingCount="0" stopTime="0.00" timeLoss="25.04" rerouteNo="1" devices="tripinfo_32 routing_32" vType="DEFAULT_VEHTYPE" speedFactor="0.88" vaporized=""/>
    <tripinfo id="35" depart="36.00" departLane="gneE0_1" departPos="5.10" departSpeed="0.00" departDelay="1.00" arrival="146.00" arrivalLane="gneE0_1" arrivalPos="2000.00" arrivalSpeed="24.19" duration="110.00" routeLength="1994.90" waitingTime="0.00" waitingCount="0" stopTime="0.00" timeLoss="32.24" rerouteNo="1" devices="tripinfo_35 routing_35" vType="DEFAULT_VEHTYPE" speedFactor="0.96" vaporized=""/>
    <tripinfo id="39" depart="39.00" departLane="gneE0_0" departPos="5.10" departSpeed="0.00" departDelay="0.00" arrival="146.00" arrivalLane="gneE0_0" arrivalPos="2000.00" arrivalSpeed="22.94" duration="107.00" routeLength="1994.90" waitingTime="0.00" waitingCount="0" stopTime="0.00" timeLoss="24.16" rerouteNo="1" devices="tripinfo_39 routing_39" vType="DEFAULT_VEHTYPE" speedFactor="0.90" vaporized=""/>
    <tripinfo id="40" depart="40.00" departLane="gneE0_1" departPos="5.10" departSpeed="0.00" departDelay="0.00" arrival="148.00" arrivalLane="gneE0_1" arrivalPos="2000.00" arrivalSpeed="26.30" duration="108.00" routeLength="1994.90" waitingTime="0.00" waitingCount="0" stopTime="0.00" timeLoss="32.54" rerouteNo="1" devices="tripinfo_40 routing_40" vType="DEFAULT_VEHTYPE" speedFactor="1.00" vaporized=""/>
    <tripinfo id="41" depart="43.00" departLane="gneE0_0" departPos="5.10" departSpeed="0.00" departDelay="2.00" arrival="149.00" arrivalLane="gneE0_0" arrivalPos="2000.00" arrivalSpeed="24.35" duration="106.00" routeLength="1994.90" waitingTime="0.00" waitingCount="0" stopTime="0.00" timeLoss="27.19" rerouteNo="1" devices="tripinfo_41 routing_41" vType="DEFAULT_VEHTYPE" speedFactor="0.95" vaporized=""/>
    <tripinfo id="43" depart="44.00" departLane="gneE0_2" departPos="5.10" departSpeed="0.00" departDelay="1.00" arrival="151.00" arrivalLane="gneE0_0" arrivalPos="2000.00" arrivalSpeed="24.50" duration="107.00" routeLength="1994.90" waitingTime="0.00" waitingCount="0" stopTime="0.00" timeLoss="27.98" rerouteNo="1" devices="tripinfo_43 routing_43" vType="DEFAULT_VEHTYPE" speedFactor="0.95" vaporized=""/>
    <tripinfo id="46" depart="46.00" departLane="gneE0_0" departPos="5.10" departSpeed="0.00" departDelay="0.00" arrival="152.00" arrivalLane="gneE0_0" arrivalPos="2000.00" arrivalSpeed="25.48" duration="106.00" routeLength="1994.90" waitingTime="0.00" waitingCount="0" stopTime="0.00" timeLoss="46.25" rerouteNo="1" devices="tripinfo_46 routing_46" vType="DEFAULT_VEHTYPE" speedFactor="1.25" vaporized=""/>
    <tripinfo id="44" depart="44.00" departLane="gneE0_1" departPos="5.10" departSpeed="0.00" departDelay="0.00" arrival="156.00" arrivalLane="gneE0_2" arrivalPos="2000.00" arrivalSpeed="20.41" duration="112.00" routeLength="1994.90" waitingTime="0.00" waitingCount="0" stopTime="0.00" timeLoss="18.97" rerouteNo="1" devices="tripinfo_44 routing_44" vType="DEFAULT_VEHTYPE" speedFactor="0.80" vaporized=""/>
    <tripinfo id="50" depart="52.00" departLane="gneE0_1" departPos="5.10" departSpeed="0.00" departDelay="2.00" arrival="157.00" arrivalLane="gneE0_1" arrivalPos="2000.00" arrivalSpeed="21.36" duration="105.00" routeLength="1994.90" waitingTime="0.00" waitingCount="0" stopTime="0.00" timeLoss="36.81" rerouteNo="1" devices="tripinfo_50 routing_50" vType="DEFAULT_VEHTYPE" speedFactor="1.09" vaporized=""/>
    <tripinfo id="49" depart="50.00" departLane="gneE0_0" departPos="5.10" departSpeed="0.00" departDelay="1.00" arrival="158.00" arrivalLane="gneE0_0" arrivalPos="2000.00" arrivalSpeed="22.85" duration="108.00" routeLength="1994.90" waitingTime="0.00" waitingCount="0" stopTime="0.00" timeLoss="26.28" rerouteNo="1" devices="tripinfo_49 routing_49" vType="DEFAULT_VEHTYPE" speedFactor="0.92" vaporized=""/>
    <tripinfo id="53" depart="53.00" departLane="gneE0_0" departPos="5.10" departSpeed="0.00" departDelay="0.00" arrival="160.00" arrivalLane="gneE0_0" arrivalPos="2000.00" arrivalSpeed="20.54" duration="107.00" routeLength="1994.90" waitingTime="0.00" waitingCount="0" stopTime="0.00" timeLoss="12.45" rerouteNo="1" devices="tripinfo_53 routing_53" vType="DEFAULT_VEHTYPE" speedFactor="0.79" vaporized=""/>
    <tripinfo id="55" depart="56.00" departLane="gneE0_0" departPos="5.10" departSpeed="0.00" departDelay="1.00" arrival="161.00" arrivalLane="gneE0_0" arrivalPos="2000.00" arrivalSpeed="21.84" duration="105.00" routeLength="1994.90" waitingTime="0.00" waitingCount="0" stopTime="0.00" timeLoss="32.96" rerouteNo="1" devices="tripinfo_55 routing_55" vType="DEFAULT_VEHTYPE" speedFactor="1.04" vaporized=""/>
    <tripinfo id="45" depart="45.00" departLane="gneE0_4" departPos="5.10" departSpeed="0.00" departDelay="0.00" arrival="161.00" arrivalLane="gneE0_3" arrivalPos="2000.00" arrivalSpeed="16.58" duration="116.00" routeLength="1994.90" waitingTime="0.00" waitingCount="0" stopTime="0.00" timeLoss="35.83" rerouteNo="1" devices="tripinfo_45 routing_45" vType="DEFAULT_VEHTYPE" speedFactor="0.94" vaporized=""/>
    <tripinfo id="54" depart="54.00" departLane="gneE0_2" departPos="5.10" departSpeed="0.00" departDelay="0.00" arrival="162.00" arrivalLane="gneE0_4" arrivalPos="2000.00" arrivalSpeed="18.34" duration="108.00" routeLength="1994.90" waitingTime="0.00" waitingCount="0" stopTime="0.00" timeLoss="15.75" rerouteNo="1" devices="tripinfo_54 routing_54" vType="DEFAULT_VEHTYPE" speedFactor="0.81" vaporized=""/>
    <tripinfo id="60" depart="60.00" departLane="gneE0_0" departPos="5.10" departSpeed="0.00" departDelay="0.00" arrival="163.00" arrivalLane="gneE0_0" arrivalPos="2000.00" arrivalSpeed="21.81" duration="103.00" routeLength="1994.90" waitingTime="0.00" waitingCount="0" stopTime="0.00" timeLoss="12.79" rerouteNo="1" devices="tripinfo_60 routing_60" vType="DEFAULT_VEHTYPE" speedFactor="0.83" vaporized=""/>
    <tripinfo id="47" depart="49.00" departLane="gneE0_3" departPos="5.10" departSpeed="0.00" departDelay="2.00" arrival="163.00" arrivalLane="gneE0_3" arrivalPos="2000.00" arrivalSpeed="16.65" duration="114.00" routeLength="1994.90" waitingTime="0.00" waitingCount="0" stopTime="0.00" timeLoss="45.74" rerouteNo="1" devices="tripinfo_47 routing_47" vType="DEFAULT_VEHTYPE" speedFactor="1.10" vaporized=""/>
    <tripinfo id="69" depart="72.00" departLane="gneE0_4" departPos="5.10" departSpeed="0.00" departDelay="3.00" arrival="164.00" arrivalLane="gneE0_4" arrivalPos="2000.00" arrivalSpeed="18.66" duration="92.00" routeLength="1994.90" waitingTime="0.00" waitingCount="0" stopTime="0.00" timeLoss="11.26" rerouteNo="1" devices="tripinfo_69 routing_69" vType="DEFAULT_VEHTYPE" speedFactor="0.93" vaporized=""/>
    <tripinfo id="52" depart="55.00" departLane="gneE0_3" departPos="5.10" departSpeed="0.00" departDelay="3.00" arrival="164.00" arrivalLane="gneE0_2" arrivalPos="2000.00" arrivalSpeed="14.18" duration="109.00" routeLength="1994.90" waitingTime="0.00" waitingCount="0" stopTime="0.00" timeLoss="35.51" rerouteNo="1" devices="tripinfo_52 routing_52" vType="DEFAULT_VEHTYPE" speedFactor="1.02" vaporized=""/>
    <tripinfo id="58" depart="58.00" departLane="gneE0_3" departPos="5.10" departSpeed="0.00" departDelay="0.00" arrival="164.00" arrivalLane="gneE0_3" arrivalPos="2000.00" arrivalSpeed="17.09" duration="106.00" routeLength="1994.90" waitingTime="0.00" waitingCount="0" stopTime="0.00" timeLoss="30.24" rerouteNo="1" devices="tripinfo_58 routing_58" vType="DEFAULT_VEHTYPE" speedFactor="0.98" vaporized=""/>
    <tripinfo id="75" depart="75.00" departLane="gneE0_4" departPos="5.10" departSpeed="0.00" departDelay="0.00" arrival="165.00" arrivalLane="gneE0_4" arrivalPos="2000.00" arrivalSpeed="19.02" duration="90.00" routeLength="1994.90" waitingTime="0.00" waitingCount="0" stopTime="0.00" timeLoss="12.55" rerouteNo="1" devices="tripinfo_75 routing_75" vType="DEFAULT_VEHTYPE" speedFactor="0.96" vaporized=""/>
    <tripinfo id="61" depart="61.00" departLane="gneE0_3" departPos="5.10" departSpeed="0.00" departDelay="0.00" arrival="166.00" arrivalLane="gneE0_3" arrivalPos="2000.00" arrivalSpeed="19.64" duration="105.00" routeLength="1994.90" waitingTime="0.00" waitingCount="0" stopTime="0.00" timeLoss="26.48" rerouteNo="1" devices="tripinfo_61 routing_61" vType="DEFAULT_VEHTYPE" speedFactor="0.95" vaporized=""/>
    <tripinfo id="81" depart="81.00" departLane="gneE0_4" departPos="5.10" departSpeed="0.00" departDelay="0.00" arrival="167.00" arrivalLane="gneE0_4" arrivalPos="2000.00" arrivalSpeed="22.15" duration="86.00" routeLength="1994.90" waitingTime="0.00" waitingCount="0" stopTime="0.00" timeLoss="11.64" rerouteNo="1" devices="tripinfo_81 routing_81" vType="DEFAULT_VEHTYPE" speedFactor="1.00" vaporized=""/>
    <tripinfo id="59" depart="59.00" departLane="gneE0_2" departPos="5.10" departSpeed="0.00" departDelay="0.00" arrival="168.00" arrivalLane="gneE0_2" arrivalPos="2000.00" arrivalSpeed="15.50" duration="109.00" routeLength="1994.90" waitingTime="0.00" waitingCount="0" stopTime="0.00" timeLoss="31.19" rerouteNo="1" devices="tripinfo_59 routing_59" vType="DEFAULT_VEHTYPE" speedFactor="0.96" vaporized=""/>
    <tripinfo id="85" depart="85.00" departLane="gneE0_4" departPos="5.10" departSpeed="0.00" departDelay="0.00" arrival="169.00" arrivalLane="gneE0_4" arrivalPos="2000.00" arrivalSpeed="24.03" duration="84.00" routeLength="1994.90" waitingTime="0.00" waitingCount="0" stopTime="0.00" timeLoss="11.21" rerouteNo="1" devices="tripinfo_85 routing_85" vType="DEFAULT_VEHTYPE" speedFactor="1.03" vaporized=""/>
    <tripinfo id="89" depart="89.00" departLane="gneE0_4" departPos="5.10" departSpeed="0.00" departDelay="0.00" arrival="170.00" arrivalLane="gneE0_4" arrivalPos="2000.00" arrivalSpeed="23.14" duration="81.00" routeLength="1994.90" waitingTime="0.00" waitingCount="0" stopTime="0.00" timeLoss="13.79" rerouteNo="1" devices="tripinfo_89 routing_89" vType="DEFAULT_VEHTYPE" speedFactor="1.11" vaporized=""/>
    <tripinfo id="72" depart="72.00" departLane="gneE0_3" departPos="5.10" departSpeed="0.00" departDelay="0.00" arrival="170.00" arrivalLane="gneE0_2" arrivalPos="2000.00" arrivalSpeed="16.71" duration="98.00" routeLength="1994.90" waitingTime="0.00" waitingCount="0" stopTime="0.00" timeLoss="12.97" rerouteNo="1" devices="tripinfo_72 routing_72" vType="DEFAULT_VEHTYPE" speedFactor="0.88" vaporized=""/>
    <tripinfo id="56" depart="56.00" departLane="gneE0_2" departPos="5.10" departSpeed="0.00" departDelay="0.00" arrival="171.00" arrivalLane="gneE0_3" arrivalPos="2000.00" arrivalSpeed="11.44" duration="115.00" routeLength="1994.90" waitingTime="0.00" waitingCount="0" stopTime="0.00" timeLoss="26.96" rerouteNo="1" devices="tripinfo_56 routing_56" vType="DEFAULT_VEHTYPE" speedFactor="0.85" vaporized=""/>
    <tripinfo id="66" depart="68.00" departLane="gneE0_1" departPos="5.10" departSpeed="0.00" departDelay="2.00" arrival="172.00" arrivalLane="gneE0_0" arrivalPos="2000.00" arrivalSpeed="21.65" duration="104.00" routeLength="1994.90" waitingTime="0.00" waitingCount="0" stopTime="0.00" timeLoss="26.79" rerouteNo="1" devices="tripinfo_66 routing_66" vType="DEFAULT_VEHTYPE" speedFactor="0.97" vaporized=""/>
    <tripinfo id="63" depart="63.00" departLane="gneE0_4" departPos="5.10" departSpeed="0.00" departDelay="0.00" arrival="172.00" arrivalLane="gneE0_3" arrivalPos="2000.00" arrivalSpeed="11.44" duration="109.00" routeLength="1994.90" waitingTime="0.00" waitingCount="0" stopTime="0.00" timeLoss="27.06" rerouteNo="1" devices="tripinfo_63 routing_63" vType="DEFAULT_VEHTYPE" speedFactor="0.91" vaporized=""/>