<?xml version="1.0" encoding="UTF-8"?>

<!-- generated on Fri Mar 29 17:17:55 2019 by Eclipse SUMO Version 1.0.1
<configuration xmlns:xsi="http://www.w3.org/2001/XMLSchema-instance" xsi:noNamespaceSchemaLocation="http://sumo.dlr.de/xsd/sumoConfiguration.xsd">

    <input>
        <net-file value="../Resources/FiveLanes/fivelanes.net.xml"/>
        <route-files value="../Resources/FiveLanes/1000v-trips.trips.xml"/>
    </input>

    <output>
        <output-prefix value="24"/>
        <tripinfo-output value="tripinfos.xml"/>
        <lanechange-output value="lanechange.xml"/>
    </output>

    <processing>
        <ignore-route-errors value="true"/>
    </processing>

    <report>
        <verbose value="true"/>
        <duration-log.statistics value="true"/>
        <no-step-log value="true"/>
    </report>

    <traci_server>
        <remote-port value="56517"/>
    </traci_server>

    <random_number>
        <seed value="4673"/>
    </random_number>

    <gui_only>
        <quit-on-end value="true"/>
        <start value="true"/>
    </gui_only>

</configuration>
-->

<tripinfos xmlns:xsi="http://www.w3.org/2001/XMLSchema-instance" xsi:noNamespaceSchemaLocation="http://sumo.dlr.de/xsd/tripinfo_file.xsd">
    <tripinfo id="0" depart="0.00" departLane="gneE0_0" departPos="5.10" departSpeed="0.00" departDelay="0.00" arrival="79.00" arrivalLane="gneE0_0" arrivalPos="2000.00" arrivalSpeed="28.18" duration="79.00" routeLength="1994.90" waitingTime="0.00" waitingCount="0" stopTime="0.00" timeLoss="8.89" rerouteNo="1" devices="tripinfo_0 routing_0" vType="DEFAULT_VEHTYPE" speedFactor="1.07" vaporized=""/>
    <tripinfo id="3" depart="3.00" departLane="gneE0_1" departPos="5.10" departSpeed="0.00" departDelay="0.00" arrival="94.00" arrivalLane="gneE0_2" arrivalPos="2000.00" arrivalSpeed="23.45" duration="91.00" routeLength="1994.90" waitingTime="0.00" waitingCount="0" stopTime="0.00" timeLoss="7.41" rerouteNo="1" devices="tripinfo_3 routing_3" vType="DEFAULT_VEHTYPE" speedFactor="0.90" vaporized=""/>
    <tripinfo id="5" depart="6.00" departLane="gneE0_1" departPos="5.10" departSpeed="0.00" departDelay="1.00" arrival="95.00" arrivalLane="gneE0_0" arrivalPos="2000.00" arrivalSpeed="23.79" duration="89.00" routeLength="1994.90" waitingTime="0.00" waitingCount="0" stopTime="0.00" timeLoss="9.40" rerouteNo="1" devices="tripinfo_5 routing_5" vType="DEFAULT_VEHTYPE" speedFactor="0.94" vaporized=""/>
    <tripinfo id="9" depart="10.00" departLane="gneE0_1" departPos="5.10" departSpeed="0.00" departDelay="1.00" arrival="100.00" arrivalLane="gneE0_1" arrivalPos="2000.00" arrivalSpeed="23.27" duration="90.00" routeLength="1994.90" waitingTime="0.00" waitingCount="0" stopTime="0.00" timeLoss="8.68" rerouteNo="1" devices="tripinfo_9 routing_9" vType="DEFAULT_VEHTYPE" speedFactor="0.92" vaporized=""/>
    <tripinfo id="4" depart="5.00" departLane="gneE0_0" departPos="5.10" departSpeed="0.00" departDelay="1.00" arrival="100.00" arrivalLane="gneE0_0" arrivalPos="2000.00" arrivalSpeed="22.37" duration="95.00" routeLength="1994.90" waitingTime="0.00" waitingCount="0" stopTime="0.00" timeLoss="7.69" rerouteNo="1" devices="tripinfo_4 routing_4" vType="DEFAULT_VEHTYPE" speedFactor="0.86" vaporized=""/>
    <tripinfo id="8" depart="8.00" departLane="gneE0_0" departPos="5.10" departSpeed="0.00" departDelay="0.00" arrival="102.00" arrivalLane="gneE0_0" arrivalPos="2000.00" arrivalSpeed="25.57" duration="94.00" routeLength="1994.90" waitingTime="0.00" waitingCount="0" stopTime="0.00" timeLoss="26.30" rerouteNo="1" devices="tripinfo_8 routing_8" vType="DEFAULT_VEHTYPE" speedFactor="1.11" vaporized=""/>
    <tripinfo id="10" depart="11.00" departLane="gneE0_0" departPos="5.10" departSpeed="0.00" departDelay="1.00" arrival="108.00" arrivalLane="gneE0_0" arrivalPos="2000.00" arrivalSpeed="21.99" duration="97.00" routeLength="1994.90" waitingTime="0.00" waitingCount="0" stopTime="0.00" timeLoss="8.85" rerouteNo="1" devices="tripinfo_10 routing_10" vType="DEFAULT_VEHTYPE" speedFactor="0.85" vaporized=""/>
    <tripinfo id="13" depart="15.00" departLane="gneE0_2" departPos="5.10" departSpeed="0.00" departDelay="2.00" arrival="109.00" arrivalLane="gneE0_1" arrivalPos="2000.00" arrivalSpeed="26.27" duration="94.00" routeLength="1994.90" waitingTime="0.00" waitingCount="0" stopTime="0.00" timeLoss="20.59" rerouteNo="1" devices="tripinfo_13 routing_13" vType="DEFAULT_VEHTYPE" speedFactor="1.01" vaporized=""/>
    <tripinfo id="14" depart="14.00" departLane="gneE0_0" departPos="5.10" departSpeed="0.00" departDelay="0.00" arrival="109.00" arrivalLane="gneE0_0" arrivalPos="2000.00" arrivalSpeed="24.22" duration="95.00" routeLength="1994.90" waitingTime="0.00" waitingCount="0" stopTime="0.00" timeLoss="15.07" rerouteNo="1" devices="tripinfo_14 routing_14" vType="DEFAULT_VEHTYPE" speedFactor="0.93" vaporized=""/>
    <tripinfo id="12" depart="12.00" departLane="gneE0_2" departPos="5.10" departSpeed="0.00" departDelay="0.00" arrival="111.00" arrivalLane="gneE0_0" arrivalPos="2000.00" arrivalSpeed="25.81" duration="99.00" routeLength="1994.90" waitingTime="0.00" waitingCount="0" stopTime="0.00" timeLoss="23.99" rerouteNo="1" devices="tripinfo_12 routing_12" vType="DEFAULT_VEHTYPE" speedFactor="1.00" vaporized=""/>
    <tripinfo id="21" depart="22.00" departLane="gneE0_0" departPos="5.10" departSpeed="0.00" departDelay="1.00" arrival="114.00" arrivalLane="gneE0_0" arrivalPos="2000.00" arrivalSpeed="28.60" duration="92.00" routeLength="1994.90" waitingTime="0.00" waitingCount="0" stopTime="0.00" timeLoss="21.61" rerouteNo="1" devices="tripinfo_21 routing_21" vType="DEFAULT_VEHTYPE" speedFactor="1.07" vaporized=""/>
    <tripinfo id="23" depart="24.00" departLane="gneE0_1" departPos="5.10" departSpeed="0.00" departDelay="1.00" arrival="125.00" arrivalLane="gneE0_0" arrivalPos="2000.00" arrivalSpeed="24.21" duration="101.00" routeLength="1994.90" waitingTime="0.00" waitingCount="0" stopTime="0.00" timeLoss="22.42" rerouteNo="1" devices="tripinfo_23 routing_23" vType="DEFAULT_VEHTYPE" speedFactor="0.95" vaporized=""/>
    <tripinfo id="25" depart="26.00" departLane="gneE0_0" departPos="5.10" departSpeed="0.00" departDelay="1.00" arrival="127.00" arrivalLane="gneE0_0" arrivalPos="2000.00" arrivalSpeed="23.71" duration="101.00" routeLength="1994.90" waitingTime="0.00" waitingCount="0" stopTime="0.00" timeLoss="19.32" rerouteNo="1" devices="tripinfo_25 routing_25" vType="DEFAULT_VEHTYPE" speedFactor="0.92" vaporized=""/>
    <tripinfo id="29" depart="29.00" departLane="gneE0_0" departPos="5.10" departSpeed="0.00" departDelay="0.00" arrival="128.00" arrivalLane="gneE0_0" arrivalPos="2000.00" arrivalSpeed="26.41" duration="99.00" routeLength="1994.90" waitingTime="0.00" waitingCount="0" stopTime="0.00" timeLoss="30.83" rerouteNo="1" devices="tripinfo_29 routing_29" vType="DEFAULT_VEHTYPE" speedFactor="1.10" vaporized=""/>
    <tripinfo id="1" depart="1.00" departLane="gneE0_4" departPos="5.10" departSpeed="0.00" departDelay="0.00" arrival="130.00" arrivalLane="gneE0_2" arrivalPos="2000.00" arrivalSpeed="21.46" duration="129.00" routeLength="1994.90" waitingTime="0.00" waitingCount="0" stopTime="0.00" timeLoss="70.61" rerouteNo="1" devices="tripinfo_1 routing_1" vType="DEFAULT_VEHTYPE" speedFactor="1.28" vaporized=""/>
    <tripinfo id="16" depart="17.00" departLane="gneE0_1" departPos="5.10" departSpeed="0.00" departDelay="1.00" arrival="132.00" arrivalLane="gneE0_3" arrivalPos="2000.00" arrivalSpeed="18.12" duration="115.00" routeLength="1994.90" waitingTime="0.00" waitingCount="0" stopTime="0.00" timeLoss="23.64" rerouteNo="1" devices="tripinfo_16 routing_16" vType="DEFAULT_VEHTYPE" speedFactor="0.82" vaporized=""/>
    <tripinfo id="18" depart="20.00" departLane="gneE0_1" departPos="5.10" departSpeed="0.00" departDelay="2.00" arrival="133.00" arrivalLane="gneE0_1" arrivalPos="2000.00" arrivalSpeed="23.17" duration="113.00" routeLength="1994.90" waitingTime="0.00" waitingCount="0" stopTime="0.00" timeLoss="30.44" rerouteNo="1" devices="tripinfo_18 routing_18" vType="DEFAULT_VEHTYPE" speedFactor="0.91" vaporized=""/>
    <tripinfo id="7" depart="7.00" departLane="gneE0_3" departPos="5.10" departSpeed="0.00" departDelay="0.00" arrival="134.00" arrivalLane="gneE0_2" arrivalPos="2000.00" arrivalSpeed="25.15" duration="127.00" routeLength="1994.90" waitingTime="0.00" waitingCount="0" stopTime="0.00" timeLoss="50.73" rerouteNo="1" devices="tripinfo_7 routing_7" vType="DEFAULT_VEHTYPE" speedFactor="0.98" vaporized=""/>
    <tripinfo id="11" depart="11.00" departLane="gneE0_3" departPos="5.10" departSpeed="0.00" departDelay="0.00" arrival="134.00" arrivalLane="gneE0_1" arrivalPos="2000.00" arrivalSpeed="20.58" duration="123.00" routeLength="1994.90" waitingTime="0.00" waitingCount="0" stopTime="0.00" timeLoss="41.97" rerouteNo="1" devices="tripinfo_11 routing_11" vType="DEFAULT_VEHTYPE" speedFactor="0.92" vaporized=""/>
    <tripinfo id="32" depart="32.00" departLane="gneE0_0" departPos="5.10" departSpeed="0.00" departDelay="0.00" arrival="139.00" arrivalLane="gneE0_0" arrivalPos="2000.00" arrivalSpeed="19.76" duration="107.00" routeLength="1994.90" waitingTime="0.00" waitingCount="0" stopTime="0.00" timeLoss="21.09" rerouteNo="1" devices="tripinfo_32 routing_32" vType="DEFAULT_VEHTYPE" speedFactor="0.87" vaporized=""/>
    <tripinfo id="2" depart="4.00" departLane="gneE0_3" departPos="5.10" departSpeed="0.00" departDelay="2.00" arrival="143.00" arrivalLane="gneE0_3" arrivalPos="2000.00" arrivalSpeed="15.28" duration="139.00" routeLength="1994.90" waitingTime="0.00" waitingCount="0" stopTime="0.00" timeLoss="68.03" rerouteNo="1" devices="tripinfo_2 routing_2" vType="DEFAULT_VEHTYPE" speedFactor="1.05" vaporized=""/>
    <tripinfo id="30" depart="31.00" departLane="gneE0_1" departPos="5.10" departSpeed="0.00" departDelay="1.00" arrival="145.00" arrivalLane="gneE0_1" arrivalPos="2000.00" arrivalSpeed="18.59" duration="114.00" routeLength="1994.90" waitingTime="0.00" waitingCount="0" stopTime="0.00" timeLoss="32.35" rerouteNo="1" devices="tripinfo_30 routing_30" vType="DEFAULT_VEHTYPE" speedFactor="0.92" vaporized=""/>
    <tripinfo id="17" depart="17.00" departLane="gneE0_3" departPos="5.10" departSpeed="0.00" departDelay="0.00" arrival="146.00" arrivalLane="gneE0_3" arrivalPos="2000.00" arrivalSpeed="17.11" duration="129.00" routeLength="1994.90" waitingTime="0.00" waitingCount="0" stopTime="0.00" timeLoss="52.96" rerouteNo="1" devices="tripinfo_17 routing_17" vType="DEFAULT_VEHTYPE" speedFactor="0.98" vaporized=""/>
    <tripinfo id="6" depart="6.00" departLane="gneE0_4" departPos="5.10" departSpeed="0.00" departDelay="0.00" arrival="146.00" arrivalLane="gneE0_4" arrivalPos="2000.00" arrivalSpeed="15.18" duration="140.00" routeLength="1994.90" waitingTime="0.00" waitingCount="0" stopTime="0.00" timeLoss="67.64" rerouteNo="1" devices="tripinfo_6 routing_6" vType="DEFAULT_VEHTYPE" speedFactor="1.03" vaporized=""/>
    <tripinfo id="22" depart="23.00" departLane="gneE0_2" departPos="5.10" departSpeed="0.00" departDelay="1.00" arrival="147.00" arrivalLane="gneE0_2" arrivalPos="2000.00" arrivalSpeed="16.39" duration="124.00" routeLength="1994.90" waitingTime="0.00" waitingCount="0" stopTime="0.00" timeLoss="50.20" rerouteNo="1" devices="tripinfo_22 routing_22" vType="DEFAULT_VEHTYPE" speedFactor="1.01" vaporized=""/>
    <tripinfo id="15" depart="15.00" departLane="gneE0_4" departPos="5.10" departSpeed="0.00" departDelay="0.00" arrival="147.00" arrivalLane="gneE0_4" arrivalPos="2000.00" arrivalSpeed="15.18" duration="132.00" routeLength="1994.90" waitingTime="0.00" waitingCount="0" stopTime="0.00" timeLoss="63.11" rerouteNo="1" devices="tripinfo_15 routing_15" vType="DEFAULT_VEHTYPE" speedFactor="1.08" vaporized=""/>
    <tripinfo id="24" depart="26.00" departLane="gneE0_2" departPos="5.10" departSpeed="0.00" departDelay="2.00" arrival="148.00" arrivalLane="gneE0_2" arrivalPos="2000.00" arrivalSpeed="17.65" duration="122.00" routeLength="1994.90" waitingTime="0.00" waitingCount="0" stopTime="0.00" timeLoss="49.80" rerouteNo="1" devices="tripinfo_24 routing_24" vType="DEFAULT_VEHTYPE" speedFactor="1.03" vaporized=""/>
    <tripinfo id="20" depart="20.00" departLane="gneE0_3" departPos="5.10" departSpeed="0.00" departDelay="0.00" arrival="148.00" arrivalLane="gneE0_3" arrivalPos="2000.00" arrivalSpeed="18.26" duration="128.00" routeLength="1994.90" waitingTime="0.00" waitingCount="0" stopTime="0.00" timeLoss="58.49" rerouteNo="1" devices="tripinfo_20 routing_20" vType="DEFAULT_VEHTYPE" speedFactor="1.07" vaporized=""/>
    <tripinfo id="19" depart="20.00" departLane="gneE0_4" departPos="5.10" departSpeed="0.00" departDelay="1.00" arrival="149.00" arrivalLane="gneE0_4" arrivalPos="2000.00" arrivalSpeed="15.19" duration="129.00" routeLength="1994.90" waitingTime="0.00" waitingCount="0" stopTime="0.00" timeLoss="62.86" rerouteNo="1" devices="tripinfo_19 routing_19" vType="DEFAULT_VEHTYPE" speedFactor="1.13" vaporized=""/>
    <tripinfo id="27" depart="29.00" departLane="gneE0_2" departPos="5.10" departSpeed="0.00" departDelay="2.00" arrival="150.00" arrivalLane="gneE0_2" arrivalPos="2000.00" arrivalSpeed="21.11" duration="121.00" routeLength="1994.90" waitingTime="0.00" waitingCount="0" stopTime="0.00" timeLoss="47.32" rerouteNo="1" devices="tripinfo_27 routing_27" vType="DEFAULT_VEHTYPE" speedFactor="1.02" vaporized=""/>
    <tripinfo id="31" depart="32.00" departLane="gneE0_3" departPos="5.10" departSpeed="0.00" departDelay="1.00" arrival="150.00" arrivalLane="gneE0_3" arrivalPos="2000.00" arrivalSpeed="18.77" duration="118.00" routeLength="1994.90" waitingTime="0.00" waitingCount="0" stopTime="0.00" timeLoss="41.04" rerouteNo="1" devices="tripinfo_31 routing_31" vType="DEFAULT_VEHTYPE" speedFactor="0.97" vaporized=""/>
    <tripinfo id="39" depart="39.00" departLane="gneE0_1" departPos="5.10" departSpeed="0.00" departDelay="0.00" arrival="150.00" arrivalLane="gneE0_1" arrivalPos="2000.00" arrivalSpeed="19.55" duration="111.00" routeLength="1994.90" waitingTime="0.00" waitingCount="0" stopTime="0.00" timeLoss="35.43" rerouteNo="1" devices="tripinfo_39 routing_39" vType="DEFAULT_VEHTYPE" speedFactor="0.99" vaporized=""/>
    <tripinfo id="26" depart="26.00" departLane="gneE0_4" departPos="5.10" departSpeed="0.00" departDelay="0.00" arrival="150.00" arrivalLane="gneE0_4" arrivalPos="2000.00" arrivalSpeed="17.98" duration="124.00" routeLength="1994.90" waitingTime="0.00" waitingCount="0" stopTime="0.00" timeLoss="52.20" rerouteNo="1" devices="tripinfo_26 routing_26" vType="DEFAULT_VEHTYPE" speedFactor="1.04" vaporized=""/>
    <tripinfo id="35" depart="35.00" departLane="gneE0_0" departPos="5.10" departSpeed="0.00" departDelay="0.00" arrival="151.00" arrivalLane="gneE0_0" arrivalPos="2000.00" arrivalSpeed="19.33" duration="116.00" routeLength="1994.90" waitingTime="0.00" waitingCount="0" stopTime="0.00" timeLoss="18.87" rerouteNo="1" devices="tripinfo_35 routing_35" vType="DEFAULT_VEHTYPE" speedFactor="0.77" vaporized=""/>
    <tripinfo id="33" depart="33.00" departLane="gneE0_2" departPos="5.10" departSpeed="0.00" departDelay="0.00" arrival="152.00" arrivalLane="gneE0_2" arrivalPos="2000.00" arrivalSpeed="20.91" duration="119.00" routeLength="1994.90" waitingTime="0.00" waitingCount="0" stopTime="0.00" timeLoss="43.94" rerouteNo="1" devices="tripinfo_33 routing_33" vType="DEFAULT_VEHTYPE" speedFactor="1.00" vaporized=""/>
    <tripinfo id="41" depart="41.00" departLane="gneE0_3" departPos="5.10" departSpeed="0.00" departDelay="0.00" arrival="152.00" arrivalLane="gneE0_3" arrivalPos="2000.00" arrivalSpeed="18.07" duration="111.00" routeLength="1994.90" waitingTime="0.00" waitingCount="0" stopTime="0.00" timeLoss="40.70" rerouteNo="1" devices="tripinfo_41 routing_41" vType="DEFAULT_VEHTYPE" speedFactor="1.06" vaporized=""/>
    <tripinfo id="28" depart="29.00" departLane="gneE0_4" departPos="5.10" departSpeed="0.00" departDelay="1.00" arrival="152.00" arrivalLane="gneE0_4" arrivalPos="2000.00" arrivalSpeed="18.80" duration="123.00" routeLength="1994.90" waitingTime="0.00" waitingCount="0" stopTime="0.00" timeLoss="55.29" rerouteNo="1" devices="tripinfo_28 routing_28" vType="DEFAULT_VEHTYPE" speedFactor="1.10" vaporized=""/>
    <tripinfo id="43" depart="44.00" departLane="gneE0_1" departPos="5.10" departSpeed="0.00" departDelay="1.00" arrival="153.00" arrivalLane="gneE0_1" arrivalPos="2000.00" arrivalSpeed="19.89" duration="109.00" routeLength="1994.90" waitingTime="0.00" waitingCount="0" stopTime="0.00" timeLoss="23.31" rerouteNo="1" devices="tripinfo_43 routing_43" vType="DEFAULT_VEHTYPE" speedFactor="0.87" vaporized=""/>
    <tripinfo id="42" depart="44.00" departLane="gneE0_2" departPos="5.10" departSpeed="0.00" departDelay="2.00" arrival="154.00" arrivalLane="gneE0_2" arrivalPos="2000.00" arrivalSpeed="24.09" duration="110.00" routeLength="1994.90" waitingTime="0.00" waitingCount="0" stopTime="0.00" timeLoss="31.02" rerouteNo="1" devices="tripinfo_42 routing_42" vType="DEFAULT_VEHTYPE" speedFactor="0.94" vaporized=""/>
    <tripinfo id="37" depart="38.00" departLane="gneE0_3" departPos="5.10" departSpeed="0.00" departDelay="1.00" arrival="154.00" arrivalLane="gneE0_1" arrivalPos="2000.00" arrivalSpeed="17.35" duration="116.00" routeLength="1994.90" waitingTime="0.00" waitingCount="0" stopTime="0.00" timeLoss="26.17" rerouteNo="1" devices="tripinfo_37 routing_37" vType="DEFAULT_VEHTYPE" speedFactor="0.83" vaporized=""/>
    <tripinfo id="34" depart="35.00" departLane="gneE0_4" departPos="5.10" departSpeed="0.00" departDelay="1.00" arrival="154.00" arrivalLane="gneE0_4" arrivalPos="2000.00" arrivalSpeed="20.71" duration="119.00" routeLength="1994.90" waitingTime="0.00" waitingCount="0" stopTime="0.00" timeLoss="48.37" rerouteNo="1" devices="tripinfo_34 routing_34" vType="DEFAULT_VEHTYPE" speedFactor="1.06" vaporized=""/>
    <tripinfo id="38" depart="40.00" departLane="gneE0_0" departPos="5.10" departSpeed="0.00" departDelay="2.00" arrival="154.00" arrivalLane="gneE0_0" arrivalPos="2000.00" arrivalSpeed="19.84" duration="114.00" routeLength="1994.90" waitingTime="0.00" waitingCount="0" stopTime="0.00" timeLoss="31.46" rerouteNo="1" devices="tripinfo_38 routing_38" vType="DEFAULT_VEHTYPE" speedFactor="0.91" vaporized=""/>
    <tripinfo id="50" depart="50.00" departLane="gneE0_0" departPos="5.10" departSpeed="0.00" departDelay="0.00" arrival="155.00" arrivalLane="gneE0_0" arrivalPos="2000.00" arrivalSpeed="20.59" duration="105.00" routeLength="1994.90" waitingTime="0.00" waitingCount="0" stopTime="0.00" timeLoss="32.17" rerouteNo="1" devices="tripinfo_50 routing_50" vType="DEFAULT_VEHTYPE" speedFactor="1.02" vaporized=""/>
    <tripinfo id="46" depart="48.00" departLane="gneE0_2" departPos="5.10" departSpeed="0.00" departDelay="2.00" arrival="156.00" arrivalLane="gneE0_2" arrivalPos="2000.00" arrivalSpeed="20.91" duration="108.00" routeLength="1994.90" waitingTime="0.00" waitingCount="0" stopTime="0.00" timeLoss="43.55" rerouteNo="1" devices="tripinfo_46 routing_46" vType="DEFAULT_VEHTYPE" speedFactor="1.16" vaporized=""/>
    <tripinfo id="36" depart="38.00" departLane="gneE0_4" departPos="5.10" departSpeed="0.00" departDelay="2.00" arrival="156.00" arrivalLane="gneE0_4" arrivalPos="2000.00" arrivalSpeed="14.88" duration="118.00" routeLength="1994.90" waitingTime="0.00" waitingCount="0" stopTime="0.00" timeLoss="46.86" rerouteNo="1" devices="tripinfo_36 routing_36" vType="DEFAULT_VEHTYPE" speedFactor="1.05" vaporized=""/>
    <tripinfo id="48" depart="51.00" departLane="gneE0_2" departPos="5.10" departSpeed="0.00" departDelay="3.00" arrival="158.00" arrivalLane="gneE0_2" arrivalPos="2000.00" arrivalSpeed="24.27" duration="107.00" routeLength="1994.90" waitingTime="0.00" waitingCount="0" stopTime="0.00" timeLoss="35.34" rerouteNo="1" devices="tripinfo_48 routing_48" vType="DEFAULT_VEHTYPE" speedFactor="1.05" vaporized=""/>
    <tripinfo id="49" depart="49.00" departLane="gneE0_1" departPos="5.10" departSpeed="0.00" departDelay="0.00" arrival="158.00" arrivalLane="gneE0_1" arrivalPos="2000.00" arrivalSpeed="21.73" duration="109.00" routeLength="1994.90" waitingTime="0.00" waitingCount="0" stopTime="0.00" timeLoss="47.14" rerouteNo="1" devices="tripinfo_49 routing_49" vType="DEFAULT_VEHTYPE" speedFactor="1.21" vaporized=""/>
    <tripinfo id="51" depart="52.00" departLane="gneE0_1" departPos="5.10" departSpeed="0.00" departDelay="1.00" arrival="159.00" arrivalLane="gneE0_2" arrivalPos="2000.00" arrivalSpeed="22.93" duration="107.00" routeLength="1994.90" waitingTime="0.00" waitingCount="0" stopTime="0.00" timeLoss="24.98" rerouteNo="1" devices="tripinfo_51 routing_51" vType="DEFAULT_VEHTYPE" speedFactor="0.91" vaporized=""/>
    <tripinfo id="54" depart="55.00" departLane="gneE0_0" departPos="5.10" departSpeed="0.00" departDelay="1.00" arrival="159.00" arrivalLane="gneE0_0" arrivalPos="2000.00" arrivalSpeed="22.11" duration="104.00" routeLength="1994.90" waitingTime="0.00" waitingCount="0" stopTime="0.00" timeLoss="29.56" rerouteNo="1" devices="tripinfo_54 routing_54" vType="DEFAULT_VEHTYPE" speedFactor="1.01" vaporized=""/>
    <tripinfo id="59" depart="59.00" departLane="gneE0_0" departPos="5.10" departSpeed="0.00" departDelay="0.00" arrival="160.00" arrivalLane="gneE0_0" arrivalPos="2000.00" arrivalSpeed="22.47" duration="101.00" routeLength="1994.90" waitingTime="0.00" waitingCount="0" stopTime="0.00" timeLoss="32.85" rerouteNo="1" devices="tripinfo_59 routing_59" vType="DEFAULT_VEHTYPE" speedFactor="1.09" vaporized=""/>
    <tripinfo id="40" depart="41.00" departLane="gneE0_4" departPos="5.10" departSpeed="0.00" departDelay="1.00" arrival="161.00" arrivalLane="gneE0_3" arrivalPos="2000.00" arrivalSpeed="19.22" duration="120.00" routeLength="1994.90" waitingTime="0.00" waitingCount="0" stopTime="0.00" timeLoss="41.09" rerouteNo="1" devices="tripinfo_40 routing_40" vType="DEFAULT_VEHTYPE" speedFactor="0.94" vaporized=""/>
    <tripinfo id="55" depart="55.00" departLane="gneE0_2" departPos="5.10" departSpeed="0.00" departDelay="0.00" arrival="162.00" arrivalLane="gneE0_2" arrivalPos="2000.00" arrivalSpeed="16.74" duration="107.00" routeLength="1994.90" waitingTime="0.00" waitingCount="0" stopTime="0.00" timeLoss="32.99" rerouteNo="1" devices="tripinfo_55 routing_55" vType="DEFAULT_VEHTYPE" speedFactor="1.01" vaporized=""/>
    <tripinfo id="58" depart="62.00" departLane="gneE0_0" departPos="5.10" departSpeed="0.00" departDelay="4.00" arrival="162.00" arrivalLane="gneE0_0" arrivalPos="2000.00" arrivalSpeed="26.31" duration="100.00" routeLength="1994.90" waitingTime="0.00" waitingCount="0" stopTime="0.00" timeLoss="25.74" rerouteNo="1" devices="tripinfo_58 routing_58" vType="DEFAULT_VEHTYPE" speedFactor="1.01" vaporized=""/>
    <tripinfo id="53" depart="53.00" departLane="gneE0_3" departPos="5.10" departSpeed="0.00" departDelay="0.00" arrival="163.00" arrivalLane="gneE0_3" arrivalPos="2000.00" arrivalSpeed="20.55" duration="110.00" routeLength="1994.90" waitingTime="0.00" waitingCount="0" stopTime="0.00" timeLoss="32.41" rerouteNo="1" devices="tripinfo_53 routing_53" vType="DEFAULT_VEHTYPE" speedFactor="0.96" vaporized=""/>
    <tripinfo id="60" depart="60.00" departLane="gneE0_1" departPos="5.10" departSpeed="0.00" departDelay="0.00" arrival="163.00" arrivalLane="gneE0_1" arrivalPos="2000.00" arrivalSpeed="18.74" duration="103.00" routeLength="1994.90" waitingTime="0.00" waitingCount="0" stopTime="0.00" timeLoss="38.03" rerouteNo="1" devices="tripinfo_60 routing_60" vType="DEFAULT_VEHTYPE" speedFactor="1.15" vaporized=""/>
    <tripinfo id="52" depart="52.00" departLane="gneE0_4" departPos="5.10" departSpeed="0.00" departDelay="0.00" arrival="164.00" arrivalLane="gneE0_2" arrivalPos="2000.00" arrivalSpeed="21.05" duration="112.00" routeLength="1994.90" waitingTime="0.00" waitingCount="0" stopTime="0.00" timeLoss="30.43" rerouteNo="1" devices="tripinfo_52 routing_52" vType="DEFAULT_VEHTYPE" speedFactor="0.92" vaporized=""/>
    <tripinfo id="45" depart="45.00" departLane="gneE0_3" departPos="5.10" departSpeed="0.00" departDelay="0.00" arrival="164.00" arrivalLane="gneE0_4" arrivalPos="2000.00" arrivalSpeed="13.45" duration="119.00" routeLength="1994.90" waitingTime="0.00" waitingCount="0" stopTime="0.00" timeLoss="36.65" rerouteNo="1" devices="tripinfo_45 routing_45" vType="DEFAULT_VEHTYPE" speedFactor="0.91" vaporized=""/>
    <tripinfo id="44" depart="45.00" departLane="gneE0_4" departPos="5.10" departSpeed="0.00" departDelay="1.00" arrival="165.00" arrivalLane="gneE0_4" arrivalPos="2000.00" arrivalSpeed="13.51" duration="120.00" routeLength="1994.90" waitingTime="0.00" waitingCount="0" stopTime="0.00" timeLoss="33.69" rerouteNo="1" devices="tripinfo_44 routing_44" vType="DEFAULT_VEHTYPE" speedFactor="0.86" vaporized=""/>
    <tripinfo id="62" depart="65.00" departLane="gneE0_0" departPos="5.10" departSpeed="0.00" departDelay="3.00" arrival="165.00" arrivalLane="gneE0_0" arrivalPos="2000.00" arrivalSpeed="23.48" duration="100.00" routeLength="1994.90" waitingTime="0.00" waitingCount="0" stopTime="0.00" timeLoss="22.70" rerouteNo="1" devices="tripinfo_62 routing_62" vType="DEFAULT_VEHTYPE" speedFactor="0.97" vaporized=""/>
    <tripinfo id="47" depart="48.00" departLane="gneE0_4" departPos="5.10" departSpeed="0.00" departDelay="1.00" arrival="166.00" arrivalLane="gneE0_3" arrivalPos="2000.00" arrivalSpeed="18.33" duration="118.00" routeLength="1994.90" waitingTime="0.00" waitingCount="0" stopTime="0.00" timeLoss="33.17" rerouteNo="1" devices="tripinfo_47 routing_47" vType="DEFAULT_VEHTYPE" speedFactor="0.88" vaporized=""/>
    <tripinfo id="63" depart="63.00" departLane="gneE0_1" departPos="5.10" departSpeed="0.00" departDelay="0.00" arrival="166.00" arrivalLane="gneE0_0" arrivalPos="2000.00" arrivalSpeed="24.18" duration="103.00" routeLength="1994.90" waitingTime="0.00" waitingCount="0" stopTime="0.00" timeLoss="28.38" rerouteNo="1" devices="tripinfo_63 routing_63" vType="DEFAULT_VEHTYPE" speedFactor="1.00" vaporized=""/>
    <tripinfo id="57" depart="57.00" departLane="gneE0_4" departPos="5.10" departSpeed="0.00" departDelay="0.00" arrival="168.00" arrivalLane="gneE0_4" arrivalPos="2000.00" arrivalSpeed="14.59" duration="111.00" routeLength="1994.90" waitingTime="0.00" waitingCount="0" stopTime="0.00" timeLoss="36.23" rerouteNo="1" devices="tripinfo_57 routing_57" vType="DEFAULT_VEHTYPE" speedFactor="1.00" vaporized=""/>
    <tripinfo id="61" depart="61.00" departLane="gneE0_2" departPos="5.10" departSpeed="0.00" departDelay="0.00" arrival="168.00" arrivalLane="gneE0_0" arrivalPos="2000.00" arrivalSpeed="25.56" duration="107.00" routeLength="1994.90" waitingTime="0.00" waitingCount="0" stopTime="0.00" timeLoss="33.54" rerouteNo="1" devices="tripinfo_61 routing_61" vType="DEFAULT_VEHTYPE" speedFactor="1.02" vaporized=""/>
    <tripinfo id="74" depart="74.00" departLane="gneE0_4" departPos="5.10" departSpeed="0.00" departDelay="0.00" arrival="169.00" arrivalLane="gneE0_4" arrivalPos="2000.00" arrivalSpeed="16.14" duration="95.00" routeLength="1994.90" waitingTime="0.00" waitingCount="0" stopTime="0.00" timeLoss="20.57" rerouteNo="1" devices="tripinfo_74 routing_74" vType="DEFAULT_VEHTYPE" speedFactor="1.00" vaporized=""/>
    <tripinfo id="56" depart="58.00" departLane="gneE0_3" departPos="5.10" departSpeed="0.00" departDelay="2.00" arrival="170.00" arrivalLane="gneE0_3" arrivalPos="2000.00" arrivalSpeed="13.93" duration="112.00" routeLength="1994.90" waitingTime="0.00" waitingCount="0" stopTime="0.00" timeLoss="35.69" rerouteNo="1" devices="tripinfo_56 routing_56" vType="DEFAULT_VEHTYPE" speedFactor="0.98" vaporized=""/>
    <tripinfo id="69" depart="69.00" departLane="gneE0_3" departPos="5.10" departSpeed="0.00" departDelay="0.00" arrival="171.00" arrivalLane="gneE0_3" arrivalPos="2000.00" arrivalSpeed="16.95" duration="102.00" routeLength="1994.90" waitingTime="0.00" waitingCount="0" stopTime="0.00" timeLoss="33.52" rerouteNo="1" devices="tripinfo_69 routing_69" vType="DEFAULT_VEHTYPE" speedFactor="1.09" vaporized=""/>
    <tripinfo id="67" depart="67.00" departLane="gneE0_4" departPos="5.10" departSpeed="0.00" departDelay="0.00" arrival="171.00" arrivalLane="gneE0_4" arrivalPos="2000.00" arrivalSpeed="24.18" duration="104.00" routeLength="1994.90" waitingTime="0.00" waitingCount="0" stopTime="0.00" timeLoss="21.39" rerouteNo="1" devices="tripinfo_67 routing_67" vType="DEFAULT_VEHTYPE" speedFactor="0.90" vaporized=""/>
    <tripinfo id="64" depart="65.00" departLane="gneE0_2" departPos="5.10" departSpeed="0.00" departDelay="1.00" arrival="172.00" arrivalLane="gneE0_1" arrivalPos="2000.00" arrivalSpeed="19.53" duration="107.00" routeLength="1994.90" waitingTime="0.00" waitingCount="0" stopTime="0.00" timeLoss="28.55" rerouteNo="1" devices="tripinfo_64 routing_64" vType="DEFAULT_VEHTYPE" speedFactor="0.95" vaporized=""/>
    <tripinfo id="68" depart="68.00" departLane="gneE0_2" departPos="5.10" departSpeed="0.00" departDelay="0.00" arrival="173.00" arrivalLane="gneE0_2" arrivalPos="2000.00" arrivalSpeed="22.03" duration="105.00" routeLength="1994.90" waitingTime="0.00" waitingCount="0" stopTime="0.00" timeLoss="35.95" rerouteNo="1" devices="tripinfo_68 routing_68" vType="DEFAULT_VEHTYPE" speedFactor="1.08" vaporized=""/>
    <tripinfo id="82" depart="84.00" departLane="gneE0_4" departPos="5.10" departSpeed="0.00" departDelay="2.00" arrival="173.00" arrivalLane="gneE0_4" arrivalPos="2000.00" arrivalSpeed="26.70" duration="89.00" routeLength="1994.90" waitingTime="0.00" waitingCount="0" stopTime="0.00" timeLoss="14.99" rerouteNo="1" devices="tripinfo_82 routing_82" vType="DEFAULT_VEHTYPE" speedFactor="1.01" vaporized=""/>