<?xml version="1.0" encoding="UTF-8"?>

<!-- generated on Thu Mar 21 16:45:22 2019 by Eclipse SUMO GUI Version 1.0.1
<configuration xmlns:xsi="http://www.w3.org/2001/XMLSchema-instance" xsi:noNamespaceSchemaLocation="http://sumo.dlr.de/xsd/sumoConfiguration.xsd">

    <input>
        <net-file value="../Resources/FiveLanes/fivelanes.net.xml"/>
        <route-files value="../Resources/FiveLanes/100v-trips.trips.xml"/>
    </input>

    <output>
        <output-prefix value="4"/>
        <tripinfo-output value="tripinfos.xml"/>
        <lanechange-output value="lanechange.xml"/>
    </output>

    <processing>
        <ignore-route-errors value="true"/>
    </processing>

    <report>
        <verbose value="true"/>
        <duration-log.statistics value="true"/>
        <no-step-log value="true"/>
    </report>

    <traci_server>
        <remote-port value="60252"/>
    </traci_server>

    <random_number>
        <seed value="268"/>
    </random_number>

    <gui_only>
        <quit-on-end value="true"/>
        <start value="true"/>
    </gui_only>

</configuration>
-->

<tripinfos xmlns:xsi="http://www.w3.org/2001/XMLSchema-instance" xsi:noNamespaceSchemaLocation="http://sumo.dlr.de/xsd/tripinfo_file.xsd">
    <tripinfo id="3" depart="3.00" departLane="gneE0_2" departPos="5.10" departSpeed="0.00" departDelay="0.00" arrival="72.00" arrivalLane="gneE0_2" arrivalPos="2000.00" arrivalSpeed="32.37" duration="69.00" routeLength="1994.90" waitingTime="0.00" waitingCount="0" stopTime="0.00" timeLoss="8.05" rerouteNo="1" devices="tripinfo_3 routing_3" vType="DEFAULT_VEHTYPE" speedFactor="1.22" vaporized=""/>
    <tripinfo id="4" depart="4.00" departLane="gneE0_1" departPos="5.10" departSpeed="0.00" departDelay="0.00" arrival="86.00" arrivalLane="gneE0_1" arrivalPos="2000.00" arrivalSpeed="29.78" duration="82.00" routeLength="1994.90" waitingTime="0.00" waitingCount="0" stopTime="0.00" timeLoss="17.08" rerouteNo="1" devices="tripinfo_4 routing_4" vType="DEFAULT_VEHTYPE" speedFactor="1.15" vaporized=""/>
    <tripinfo id="2" depart="2.00" departLane="gneE0_4" departPos="5.10" departSpeed="0.00" departDelay="0.00" arrival="94.00" arrivalLane="gneE0_4" arrivalPos="2000.00" arrivalSpeed="22.57" duration="92.00" routeLength="1994.90" waitingTime="0.00" waitingCount="0" stopTime="0.00" timeLoss="7.89" rerouteNo="1" devices="tripinfo_2 routing_2" vType="DEFAULT_VEHTYPE" speedFactor="0.89" vaporized=""/>
    <tripinfo id="7" depart="7.00" departLane="gneE0_3" departPos="5.10" departSpeed="0.00" departDelay="0.00" arrival="96.00" arrivalLane="gneE0_3" arrivalPos="2000.00" arrivalSpeed="22.24" duration="89.00" routeLength="1994.90" waitingTime="0.00" waitingCount="0" stopTime="0.00" timeLoss="13.29" rerouteNo="1" devices="tripinfo_7 routing_7" vType="DEFAULT_VEHTYPE" speedFactor="0.98" vaporized=""/>
    <tripinfo id="6" depart="7.00" departLane="gneE0_2" departPos="5.10" departSpeed="0.00" departDelay="1.00" arrival="98.00" arrivalLane="gneE0_2" arrivalPos="2000.00" arrivalSpeed="23.82" duration="91.00" routeLength="1994.90" waitingTime="0.00" waitingCount="0" stopTime="0.00" timeLoss="9.87" rerouteNo="1" devices="tripinfo_6 routing_6" vType="DEFAULT_VEHTYPE" speedFactor="0.93" vaporized=""/>
    <tripinfo id="10" depart="10.00" departLane="gneE0_2" departPos="5.10" departSpeed="0.00" departDelay="0.00" arrival="99.00" arrivalLane="gneE0_2" arrivalPos="2000.00" arrivalSpeed="23.89" duration="89.00" routeLength="1994.90" waitingTime="0.00" waitingCount="0" stopTime="0.00" timeLoss="8.29" rerouteNo="1" devices="tripinfo_10 routing_10" vType="DEFAULT_VEHTYPE" speedFactor="0.92" vaporized=""/>
    <tripinfo id="0" depart="0.00" departLane="gneE0_1" departPos="5.10" departSpeed="0.00" departDelay="0.00" arrival="99.00" arrivalLane="gneE0_1" arrivalPos="2000.00" arrivalSpeed="21.32" duration="99.00" routeLength="1994.90" waitingTime="0.00" waitingCount="0" stopTime="0.00" timeLoss="14.54" rerouteNo="1" devices="tripinfo_0 routing_0" vType="DEFAULT_VEHTYPE" speedFactor="0.89" vaporized=""/>
    <tripinfo id="11" depart="11.00" departLane="gneE0_3" departPos="5.10" departSpeed="0.00" departDelay="0.00" arrival="101.00" arrivalLane="gneE0_4" arrivalPos="2000.00" arrivalSpeed="24.20" duration="90.00" routeLength="1994.90" waitingTime="0.00" waitingCount="0" stopTime="0.00" timeLoss="8.04" rerouteNo="1" devices="tripinfo_11 routing_11" vType="DEFAULT_VEHTYPE" speedFactor="0.91" vaporized=""/>
    <tripinfo id="15" depart="15.00" departLane="gneE0_4" departPos="5.10" departSpeed="0.00" departDelay="0.00" arrival="103.00" arrivalLane="gneE0_4" arrivalPos="2000.00" arrivalSpeed="26.46" duration="88.00" routeLength="1994.90" waitingTime="0.00" waitingCount="0" stopTime="0.00" timeLoss="14.01" rerouteNo="1" devices="tripinfo_15 routing_15" vType="DEFAULT_VEHTYPE" speedFactor="1.02" vaporized=""/>
    <tripinfo id="8" depart="8.00" departLane="gneE0_1" departPos="5.10" departSpeed="0.00" departDelay="0.00" arrival="103.00" arrivalLane="gneE0_1" arrivalPos="2000.00" arrivalSpeed="23.49" duration="95.00" routeLength="1994.90" waitingTime="0.00" waitingCount="0" stopTime="0.00" timeLoss="10.24" rerouteNo="1" devices="tripinfo_8 routing_8" vType="DEFAULT_VEHTYPE" speedFactor="0.88" vaporized=""/>
    <tripinfo id="17" depart="18.00" departLane="gneE0_4" departPos="5.10" departSpeed="0.00" departDelay="1.00" arrival="104.00" arrivalLane="gneE0_4" arrivalPos="2000.00" arrivalSpeed="24.08" duration="86.00" routeLength="1994.90" waitingTime="0.00" waitingCount="0" stopTime="0.00" timeLoss="13.83" rerouteNo="1" devices="tripinfo_17 routing_17" vType="DEFAULT_VEHTYPE" speedFactor="1.04" vaporized=""/>
    <tripinfo id="14" depart="14.00" departLane="gneE0_3" departPos="5.10" departSpeed="0.00" departDelay="0.00" arrival="105.00" arrivalLane="gneE0_3" arrivalPos="2000.00" arrivalSpeed="24.83" duration="91.00" routeLength="1994.90" waitingTime="0.00" waitingCount="0" stopTime="0.00" timeLoss="23.64" rerouteNo="1" devices="tripinfo_14 routing_14" vType="DEFAULT_VEHTYPE" speedFactor="1.11" vaporized=""/>
    <tripinfo id="13" depart="15.00" departLane="gneE0_2" departPos="5.10" departSpeed="0.00" departDelay="2.00" arrival="106.00" arrivalLane="gneE0_2" arrivalPos="2000.00" arrivalSpeed="25.77" duration="91.00" routeLength="1994.90" waitingTime="0.00" waitingCount="0" stopTime="0.00" timeLoss="16.78" rerouteNo="1" devices="tripinfo_13 routing_13" vType="DEFAULT_VEHTYPE" speedFactor="1.01" vaporized=""/>
    <tripinfo id="21" depart="21.00" departLane="gneE0_2" departPos="5.10" departSpeed="0.00" departDelay="0.00" arrival="107.00" arrivalLane="gneE0_2" arrivalPos="2000.00" arrivalSpeed="26.19" duration="86.00" routeLength="1994.90" waitingTime="0.00" waitingCount="0" stopTime="0.00" timeLoss="12.57" rerouteNo="1" devices="tripinfo_21 routing_21" vType="DEFAULT_VEHTYPE" speedFactor="1.01" vaporized=""/>
    <tripinfo id="25" depart="25.00" departLane="gneE0_4" departPos="5.10" departSpeed="0.00" departDelay="0.00" arrival="108.00" arrivalLane="gneE0_4" arrivalPos="2000.00" arrivalSpeed="26.38" duration="83.00" routeLength="1994.90" waitingTime="0.00" waitingCount="0" stopTime="0.00" timeLoss="7.73" rerouteNo="1" devices="tripinfo_25 routing_25" vType="DEFAULT_VEHTYPE" speedFactor="1.00" vaporized=""/>
    <tripinfo id="16" depart="16.00" departLane="gneE0_1" departPos="5.10" departSpeed="0.00" departDelay="0.00" arrival="111.00" arrivalLane="gneE0_1" arrivalPos="2000.00" arrivalSpeed="22.56" duration="95.00" routeLength="1994.90" waitingTime="0.00" waitingCount="0" stopTime="0.00" timeLoss="7.78" rerouteNo="1" devices="tripinfo_16 routing_16" vType="DEFAULT_VEHTYPE" speedFactor="0.85" vaporized=""/>
    <tripinfo id="20" depart="22.00" departLane="gneE0_3" departPos="5.10" departSpeed="0.00" departDelay="2.00" arrival="112.00" arrivalLane="gneE0_3" arrivalPos="2000.00" arrivalSpeed="24.19" duration="90.00" routeLength="1994.90" waitingTime="0.00" waitingCount="0" stopTime="0.00" timeLoss="7.90" rerouteNo="1" devices="tripinfo_20 routing_20" vType="DEFAULT_VEHTYPE" speedFactor="0.91" vaporized=""/>
    <tripinfo id="22" depart="24.00" departLane="gneE0_2" departPos="5.10" departSpeed="0.00" departDelay="2.00" arrival="113.00" arrivalLane="gneE0_2" arrivalPos="2000.00" arrivalSpeed="26.19" duration="89.00" routeLength="1994.90" waitingTime="0.00" waitingCount="0" stopTime="0.00" timeLoss="15.00" rerouteNo="1" devices="tripinfo_22 routing_22" vType="DEFAULT_VEHTYPE" speedFactor="1.01" vaporized=""/>
    <tripinfo id="26" depart="28.00" departLane="gneE0_2" departPos="5.10" departSpeed="0.00" departDelay="2.00" arrival="115.00" arrivalLane="gneE0_2" arrivalPos="2000.00" arrivalSpeed="23.25" duration="87.00" routeLength="1994.90" waitingTime="0.00" waitingCount="0" stopTime="0.00" timeLoss="14.90" rerouteNo="1" devices="tripinfo_26 routing_26" vType="DEFAULT_VEHTYPE" speedFactor="1.03" vaporized=""/>
    <tripinfo id="18" depart="19.00" departLane="gneE0_1" departPos="5.10" departSpeed="0.00" departDelay="1.00" arrival="115.00" arrivalLane="gneE0_1" arrivalPos="2000.00" arrivalSpeed="22.35" duration="96.00" routeLength="1994.90" waitingTime="0.00" waitingCount="0" stopTime="0.00" timeLoss="7.84" rerouteNo="1" devices="tripinfo_18 routing_18" vType="DEFAULT_VEHTYPE" speedFactor="0.85" vaporized=""/>
    <tripinfo id="23" depart="23.00" departLane="gneE0_1" departPos="5.10" departSpeed="0.00" departDelay="0.00" arrival="116.00" arrivalLane="gneE0_1" arrivalPos="2000.00" arrivalSpeed="25.54" duration="93.00" routeLength="1994.90" waitingTime="0.00" waitingCount="0" stopTime="0.00" timeLoss="27.22" rerouteNo="1" devices="tripinfo_23 routing_23" vType="DEFAULT_VEHTYPE" speedFactor="1.13" vaporized=""/>
    <tripinfo id="27" depart="29.00" departLane="gneE0_3" departPos="5.10" departSpeed="0.00" departDelay="2.00" arrival="118.00" arrivalLane="gneE0_3" arrivalPos="2000.00" arrivalSpeed="24.20" duration="89.00" routeLength="1994.90" waitingTime="0.00" waitingCount="0" stopTime="0.00" timeLoss="7.62" rerouteNo="1" devices="tripinfo_27 routing_27" vType="DEFAULT_VEHTYPE" speedFactor="0.92" vaporized=""/>
    <tripinfo id="37" depart="38.00" departLane="gneE0_4" departPos="5.10" departSpeed="0.00" departDelay="1.00" arrival="118.00" arrivalLane="gneE0_4" arrivalPos="2000.00" arrivalSpeed="27.22" duration="80.00" routeLength="1994.90" waitingTime="0.00" waitingCount="0" stopTime="0.00" timeLoss="8.39" rerouteNo="1" devices="tripinfo_37 routing_37" vType="DEFAULT_VEHTYPE" speedFactor="1.05" vaporized=""/>
    <tripinfo id="30" depart="33.00" departLane="gneE0_3" departPos="5.10" departSpeed="0.00" departDelay="3.00" arrival="119.00" arrivalLane="gneE0_3" arrivalPos="2000.00" arrivalSpeed="25.66" duration="86.00" routeLength="1994.90" waitingTime="0.00" waitingCount="0" stopTime="0.00" timeLoss="9.76" rerouteNo="1" devices="tripinfo_30 routing_30" vType="DEFAULT_VEHTYPE" speedFactor="0.98" vaporized=""/>
    <tripinfo id="36" depart="36.00" departLane="gneE0_3" departPos="5.10" departSpeed="0.00" departDelay="0.00" arrival="121.00" arrivalLane="gneE0_3" arrivalPos="2000.00" arrivalSpeed="26.85" duration="85.00" routeLength="1994.90" waitingTime="0.00" waitingCount="0" stopTime="0.00" timeLoss="22.66" rerouteNo="1" devices="tripinfo_36 routing_36" vType="DEFAULT_VEHTYPE" speedFactor="1.20" vaporized=""/>
    <tripinfo id="39" depart="39.00" departLane="gneE0_3" departPos="5.10" departSpeed="0.00" departDelay="0.00" arrival="123.00" arrivalLane="gneE0_3" arrivalPos="2000.00" arrivalSpeed="22.71" duration="84.00" routeLength="1994.90" waitingTime="0.00" waitingCount="0" stopTime="0.00" timeLoss="11.30" rerouteNo="1" devices="tripinfo_39 routing_39" vType="DEFAULT_VEHTYPE" speedFactor="1.02" vaporized=""/>
    <tripinfo id="1" depart="1.00" departLane="gneE0_0" departPos="5.10" departSpeed="0.00" departDelay="0.00" arrival="127.00" arrivalLane="gneE0_1" arrivalPos="2000.00" arrivalSpeed="12.90" duration="126.00" routeLength="1994.90" waitingTime="0.00" waitingCount="0" stopTime="0.00" timeLoss="56.44" rerouteNo="1" devices="tripinfo_1 routing_1" vType="DEFAULT_VEHTYPE" speedFactor="1.07" vaporized=""/>
    <tripinfo id="31" depart="32.00" departLane="gneE0_2" departPos="5.10" departSpeed="0.00" departDelay="1.00" arrival="129.00" arrivalLane="gneE0_3" arrivalPos="2000.00" arrivalSpeed="21.42" duration="97.00" routeLength="1994.90" waitingTime="0.00" waitingCount="0" stopTime="0.00" timeLoss="8.28" rerouteNo="1" devices="tripinfo_31 routing_31" vType="DEFAULT_VEHTYPE" speedFactor="0.85" vaporized=""/>
    <tripinfo id="46" depart="46.00" departLane="gneE0_4" departPos="5.10" departSpeed="0.00" departDelay="0.00" arrival="129.00" arrivalLane="gneE0_4" arrivalPos="2000.00" arrivalSpeed="26.74" duration="83.00" routeLength="1994.90" waitingTime="0.00" waitingCount="0" stopTime="0.00" timeLoss="8.56" rerouteNo="1" devices="tripinfo_46 routing_46" vType="DEFAULT_VEHTYPE" speedFactor="1.00" vaporized=""/>
    <tripinfo id="43" depart="43.00" departLane="gneE0_3" departPos="5.10" departSpeed="0.00" departDelay="0.00" arrival="130.00" arrivalLane="gneE0_3" arrivalPos="2000.00" arrivalSpeed="24.84" duration="87.00" routeLength="1994.90" waitingTime="0.00" waitingCount="0" stopTime="0.00" timeLoss="6.34" rerouteNo="1" devices="tripinfo_43 routing_43" vType="DEFAULT_VEHTYPE" speedFactor="0.93" vaporized=""/>
    <tripinfo id="33" depart="35.00" departLane="gneE0_2" departPos="5.10" departSpeed="0.00" departDelay="2.00" arrival="130.00" arrivalLane="gneE0_2" arrivalPos="2000.00" arrivalSpeed="23.91" duration="95.00" routeLength="1994.90" waitingTime="0.00" waitingCount="0" stopTime="0.00" timeLoss="15.24" rerouteNo="1" devices="tripinfo_33 routing_33" vType="DEFAULT_VEHTYPE" speedFactor="0.94" vaporized=""/>
    <tripinfo id="40" depart="40.00" departLane="gneE0_2" departPos="5.10" departSpeed="0.00" departDelay="0.00" arrival="131.00" arrivalLane="gneE0_2" arrivalPos="2000.00" arrivalSpeed="25.15" duration="91.00" routeLength="1994.90" waitingTime="0.00" waitingCount="0" stopTime="0.00" timeLoss="25.49" rerouteNo="1" devices="tripinfo_40 routing_40" vType="DEFAULT_VEHTYPE" speedFactor="1.14" vaporized=""/>
    <tripinfo id="29" depart="30.00" departLane="gneE0_1" departPos="5.10" departSpeed="0.00" departDelay="1.00" arrival="134.00" arrivalLane="gneE0_1" arrivalPos="2000.00" arrivalSpeed="22.06" duration="104.00" routeLength="1994.90" waitingTime="0.00" waitingCount="0" stopTime="0.00" timeLoss="13.96" rerouteNo="1" devices="tripinfo_29 routing_29" vType="DEFAULT_VEHTYPE" speedFactor="0.83" vaporized=""/>
    <tripinfo id="45" depart="46.00" departLane="gneE0_3" departPos="5.10" departSpeed="0.00" departDelay="1.00" arrival="136.00" arrivalLane="gneE0_3" arrivalPos="2000.00" arrivalSpeed="24.89" duration="90.00" routeLength="1994.90" waitingTime="0.00" waitingCount="0" stopTime="0.00" timeLoss="10.75" rerouteNo="1" devices="tripinfo_45 routing_45" vType="DEFAULT_VEHTYPE" speedFactor="0.95" vaporized=""/>
    <tripinfo id="32" depart="33.00" departLane="gneE0_1" departPos="5.10" departSpeed="0.00" departDelay="1.00" arrival="136.00" arrivalLane="gneE0_1" arrivalPos="2000.00" arrivalSpeed="24.82" duration="103.00" routeLength="1994.90" waitingTime="0.00" waitingCount="0" stopTime="0.00" timeLoss="21.85" rerouteNo="1" devices="tripinfo_32 routing_32" vType="DEFAULT_VEHTYPE" speedFactor="0.93" vaporized=""/>
    <tripinfo id="48" depart="48.00" departLane="gneE0_2" departPos="5.10" departSpeed="0.00" departDelay="0.00" arrival="137.00" arrivalLane="gneE0_2" arrivalPos="2000.00" arrivalSpeed="26.49" duration="89.00" routeLength="1994.90" waitingTime="0.00" waitingCount="0" stopTime="0.00" timeLoss="17.84" rerouteNo="1" devices="tripinfo_48 routing_48" vType="DEFAULT_VEHTYPE" speedFactor="1.05" vaporized=""/>
    <tripinfo id="35" depart="37.00" departLane="gneE0_1" departPos="5.10" departSpeed="0.00" departDelay="2.00" arrival="137.00" arrivalLane="gneE0_1" arrivalPos="2000.00" arrivalSpeed="24.92" duration="100.00" routeLength="1994.90" waitingTime="0.00" waitingCount="0" stopTime="0.00" timeLoss="26.05" rerouteNo="1" devices="tripinfo_35 routing_35" vType="DEFAULT_VEHTYPE" speedFactor="1.01" vaporized=""/>
    <tripinfo id="42" depart="42.00" departLane="gneE0_1" departPos="5.10" departSpeed="0.00" departDelay="0.00" arrival="139.00" arrivalLane="gneE0_1" arrivalPos="2000.00" arrivalSpeed="25.62" duration="97.00" routeLength="1994.90" waitingTime="0.00" waitingCount="0" stopTime="0.00" timeLoss="28.54" rerouteNo="1" devices="tripinfo_42 routing_42" vType="DEFAULT_VEHTYPE" speedFactor="1.10" vaporized=""/>
    <tripinfo id="49" depart="49.00" departLane="gneE0_4" departPos="5.10" departSpeed="0.00" departDelay="0.00" arrival="141.00" arrivalLane="gneE0_4" arrivalPos="2000.00" arrivalSpeed="23.13" duration="92.00" routeLength="1994.90" waitingTime="0.00" waitingCount="0" stopTime="0.00" timeLoss="5.72" rerouteNo="1" devices="tripinfo_49 routing_49" vType="DEFAULT_VEHTYPE" speedFactor="0.86" vaporized=""/>
    <tripinfo id="47" depart="50.00" departLane="gneE0_3" departPos="5.10" departSpeed="0.00" departDelay="3.00" arrival="143.00" arrivalLane="gneE0_3" arrivalPos="2000.00" arrivalSpeed="25.95" duration="93.00" routeLength="1994.90" waitingTime="0.00" waitingCount="0" stopTime="0.00" timeLoss="15.78" rerouteNo="1" devices="tripinfo_47 routing_47" vType="DEFAULT_VEHTYPE" speedFactor="0.97" vaporized=""/>
    <tripinfo id="51" depart="53.00" departLane="gneE0_4" departPos="5.10" departSpeed="0.00" departDelay="2.00" arrival="144.00" arrivalLane="gneE0_4" arrivalPos="2000.00" arrivalSpeed="22.73" duration="91.00" routeLength="1994.90" waitingTime="0.00" waitingCount="0" stopTime="0.00" timeLoss="12.58" rerouteNo="1" devices="tripinfo_51 routing_51" vType="DEFAULT_VEHTYPE" speedFactor="0.95" vaporized=""/>
    <tripinfo id="52" depart="54.00" departLane="gneE0_3" departPos="5.10" departSpeed="0.00" departDelay="2.00" arrival="145.00" arrivalLane="gneE0_3" arrivalPos="2000.00" arrivalSpeed="25.02" duration="91.00" routeLength="1994.90" waitingTime="0.00" waitingCount="0" stopTime="0.00" timeLoss="18.56" rerouteNo="1" devices="tripinfo_52 routing_52" vType="DEFAULT_VEHTYPE" speedFactor="1.03" vaporized=""/>
    <tripinfo id="58" depart="58.00" departLane="gneE0_4" departPos="5.10" departSpeed="0.00" departDelay="0.00" arrival="146.00" arrivalLane="gneE0_4" arrivalPos="2000.00" arrivalSpeed="26.70" duration="88.00" routeLength="1994.90" waitingTime="0.00" waitingCount="0" stopTime="0.00" timeLoss="14.74" rerouteNo="1" devices="tripinfo_58 routing_58" vType="DEFAULT_VEHTYPE" speedFactor="1.03" vaporized=""/>
    <tripinfo id="56" depart="57.00" departLane="gneE0_3" departPos="5.10" departSpeed="0.00" departDelay="1.00" arrival="147.00" arrivalLane="gneE0_3" arrivalPos="2000.00" arrivalSpeed="25.23" duration="90.00" routeLength="1994.90" waitingTime="0.00" waitingCount="0" stopTime="0.00" timeLoss="13.47" rerouteNo="1" devices="tripinfo_56 routing_56" vType="DEFAULT_VEHTYPE" speedFactor="0.98" vaporized=""/>
    <tripinfo id="53" depart="54.00" departLane="gneE0_2" departPos="5.10" departSpeed="0.00" departDelay="1.00" arrival="147.00" arrivalLane="gneE0_2" arrivalPos="2000.00" arrivalSpeed="23.35" duration="93.00" routeLength="1994.90" waitingTime="0.00" waitingCount="0" stopTime="0.00" timeLoss="8.69" rerouteNo="1" devices="tripinfo_53 routing_53" vType="DEFAULT_VEHTYPE" speedFactor="0.89" vaporized=""/>
    <tripinfo id="61" depart="61.00" departLane="gneE0_4" departPos="5.10" departSpeed="0.00" departDelay="0.00" arrival="147.00" arrivalLane="gneE0_4" arrivalPos="2000.00" arrivalSpeed="26.02" duration="86.00" routeLength="1994.90" waitingTime="0.00" waitingCount="0" stopTime="0.00" timeLoss="20.46" rerouteNo="1" devices="tripinfo_61 routing_61" vType="DEFAULT_VEHTYPE" speedFactor="1.14" vaporized=""/>
    <tripinfo id="63" depart="64.00" departLane="gneE0_4" departPos="5.10" departSpeed="0.00" departDelay="1.00" arrival="148.00" arrivalLane="gneE0_4" arrivalPos="2000.00" arrivalSpeed="26.05" duration="84.00" routeLength="1994.90" waitingTime="0.00" waitingCount="0" stopTime="0.00" timeLoss="20.30" rerouteNo="1" devices="tripinfo_63 routing_63" vType="DEFAULT_VEHTYPE" speedFactor="1.17" vaporized=""/>
    <tripinfo id="64" depart="64.00" departLane="gneE0_3" departPos="5.10" departSpeed="0.00" departDelay="0.00" arrival="152.00" arrivalLane="gneE0_3" arrivalPos="2000.00" arrivalSpeed="23.84" duration="88.00" routeLength="1994.90" waitingTime="0.00" waitingCount="0" stopTime="0.00" timeLoss="15.58" rerouteNo="1" devices="tripinfo_64 routing_64" vType="DEFAULT_VEHTYPE" speedFactor="1.03" vaporized=""/>
    <tripinfo id="57" depart="57.00" departLane="gneE0_2" departPos="5.10" departSpeed="0.00" departDelay="0.00" arrival="152.00" arrivalLane="gneE0_2" arrivalPos="2000.00" arrivalSpeed="17.05" duration="95.00" routeLength="1994.90" waitingTime="0.00" waitingCount="0" stopTime="0.00" timeLoss="14.70" rerouteNo="1" devices="tripinfo_57 routing_57" vType="DEFAULT_VEHTYPE" speedFactor="0.93" vaporized=""/>
    <tripinfo id="60" depart="60.00" departLane="gneE0_2" departPos="5.10" departSpeed="0.00" departDelay="0.00" arrival="153.00" arrivalLane="gneE0_2" arrivalPos="2000.00" arrivalSpeed="19.04" duration="93.00" routeLength="1994.90" waitingTime="0.00" waitingCount="0" stopTime="0.00" timeLoss="18.50" rerouteNo="1" devices="tripinfo_60 routing_60" vType="DEFAULT_VEHTYPE" speedFactor="1.00" vaporized=""/>
    <tripinfo id="50" depart="51.00" departLane="gneE0_1" departPos="5.10" departSpeed="0.00" departDelay="1.00" arrival="154.00" arrivalLane="gneE0_1" arrivalPos="2000.00" arrivalSpeed="18.60" duration="103.00" routeLength="1994.90" waitingTime="0.00" waitingCount="0" stopTime="0.00" timeLoss="31.73" rerouteNo="1" devices="tripinfo_50 routing_50" vType="DEFAULT_VEHTYPE" speedFactor="1.04" vaporized=""/>
    <tripinfo id="65" depart="65.00" departLane="gneE0_2" departPos="5.10" departSpeed="0.00" departDelay="0.00" arrival="155.00" arrivalLane="gneE0_2" arrivalPos="2000.00" arrivalSpeed="23.43" duration="90.00" routeLength="1994.90" waitingTime="0.00" waitingCount="0" stopTime="0.00" timeLoss="8.45" rerouteNo="1" devices="tripinfo_65 routing_65" vType="DEFAULT_VEHTYPE" speedFactor="0.91" vaporized=""/>
    <tripinfo id="72" depart="72.00" departLane="gneE0_4" departPos="5.10" departSpeed="0.00" departDelay="0.00" arrival="156.00" arrivalLane="gneE0_4" arrivalPos="2000.00" arrivalSpeed="27.11" duration="84.00" routeLength="1994.90" waitingTime="0.00" waitingCount="0" stopTime="0.00" timeLoss="9.91" rerouteNo="1" devices="tripinfo_72 routing_72" vType="DEFAULT_VEHTYPE" speedFactor="1.01" vaporized=""/>
    <tripinfo id="68" depart="68.00" departLane="gneE0_3" departPos="5.10" departSpeed="0.00" departDelay="0.00" arrival="157.00" arrivalLane="gneE0_3" arrivalPos="2000.00" arrivalSpeed="23.69" duration="89.00" routeLength="1994.90" waitingTime="0.00" waitingCount="0" stopTime="0.00" timeLoss="4.81" rerouteNo="1" devices="tripinfo_68 routing_68" vType="DEFAULT_VEHTYPE" speedFactor="0.89" vaporized=""/>
    <tripinfo id="70" depart="71.00" departLane="gneE0_3" departPos="5.10" departSpeed="0.00" departDelay="1.00" arrival="158.00" arrivalLane="gneE0_3" arrivalPos="2000.00" arrivalSpeed="24.33" duration="87.00" routeLength="1994.90" waitingTime="0.00" waitingCount="0" stopTime="0.00" timeLoss="24.14" rerouteNo="1" devices="tripinfo_70 routing_70" vType="DEFAULT_VEHTYPE" speedFactor="1.18" vaporized=""/>
    <tripinfo id="67" depart="68.00" departLane="gneE0_2" departPos="5.10" departSpeed="0.00" departDelay="1.00" arrival="158.00" arrivalLane="gneE0_2" arrivalPos="2000.00" arrivalSpeed="24.60" duration="90.00" routeLength="1994.90" waitingTime="0.00" waitingCount="0" stopTime="0.00" timeLoss="19.69" rerouteNo="1" devices="tripinfo_67 routing_67" vType="DEFAULT_VEHTYPE" speedFactor="1.06" vaporized=""/>
    <tripinfo id="75" depart="76.00" departLane="gneE0_4" departPos="5.10" departSpeed="0.00" departDelay="1.00" arrival="159.00" arrivalLane="gneE0_4" arrivalPos="2000.00" arrivalSpeed="26.55" duration="83.00" routeLength="1994.90" waitingTime="0.00" waitingCount="0" stopTime="0.00" timeLoss="7.75" rerouteNo="1" devices="tripinfo_75 routing_75" vType="DEFAULT_VEHTYPE" speedFactor="0.99" vaporized=""/>
    <tripinfo id="73" depart="74.00" departLane="gneE0_3" departPos="5.10" departSpeed="0.00" departDelay="1.00" arrival="160.00" arrivalLane="gneE0_3" arrivalPos="2000.00" arrivalSpeed="23.72" duration="86.00" routeLength="1994.90" waitingTime="0.00" waitingCount="0" stopTime="0.00" timeLoss="18.17" rerouteNo="1" devices="tripinfo_73 routing_73" vType="DEFAULT_VEHTYPE" speedFactor="1.10" vaporized=""/>
    <tripinfo id="71" depart="72.00" departLane="gneE0_2" departPos="5.10" departSpeed="0.00" departDelay="1.00" arrival="160.00" arrivalLane="gneE0_2" arrivalPos="2000.00" arrivalSpeed="26.18" duration="88.00" routeLength="1994.90" waitingTime="0.00" waitingCount="0" stopTime="0.00" timeLoss="11.93" rerouteNo="1" devices="tripinfo_71 routing_71" vType="DEFAULT_VEHTYPE" speedFactor="0.99" vaporized=""/>
    <tripinfo id="9" depart="9.00" departLane="gneE0_0" departPos="5.10" departSpeed="0.00" departDelay="0.00" arrival="160.00" arrivalLane="gneE0_0" arrivalPos="2000.00" arrivalSpeed="19.71" duration="151.00" routeLength="1994.90" waitingTime="1.00" waitingCount="1" stopTime="0.00" timeLoss="68.28" rerouteNo="1" devices="tripinfo_9 routing_9" vType="DEFAULT_VEHTYPE" speedFactor="0.90" vaporized=""/>
    <tripinfo id="74" depart="75.00" departLane="gneE0_2" departPos="5.10" departSpeed="0.00" departDelay="1.00" arrival="162.00" arrivalLane="gneE0_2" arrivalPos="2000.00" arrivalSpeed="22.06" duration="87.00" routeLength="1994.90" waitingTime="0.00" waitingCount="0" stopTime="0.00" timeLoss="21.36" rerouteNo="1" devices="tripinfo_74 routing_74" vType="DEFAULT_VEHTYPE" speedFactor="1.14" vaporized=""/>
    <tripinfo id="80" depart="80.00" departLane="gneE0_4" departPos="5.10" departSpeed="0.00" departDelay="0.00" arrival="164.00" arrivalLane="gneE0_4" arrivalPos="2000.00" arrivalSpeed="26.42" duration="84.00" routeLength="1994.90" waitingTime="0.00" waitingCount="0" stopTime="0.00" timeLoss="10.66" rerouteNo="1" devices="tripinfo_80 routing_80" vType="DEFAULT_VEHTYPE" speedFactor="1.03" vaporized=""/>
    <tripinfo id="5" depart="5.00" departLane="gneE0_0" departPos="5.10" departSpeed="0.00" departDelay="0.00" arrival="164.00" arrivalLane="gneE0_1" arrivalPos="2000.00" arrivalSpeed="9.66" duration="159.00" routeLength="1994.90" waitingTime="1.00" waitingCount="1" stopTime="0.00" timeLoss="88.69" rerouteNo="1" devices="tripinfo_5 routing_5" vType="DEFAULT_VEHTYPE" speedFactor="1.06" vaporized=""/>
    <tripinfo id="78" depart="79.00" departLane="gneE0_3" departPos="5.10" departSpeed="0.00" departDelay="1.00" arrival="165.00" arrivalLane="gneE0_3" arrivalPos="2000.00" arrivalSpeed="29.70" duration="86.00" routeLength="1994.90" waitingTime="0.00" waitingCount="0" stopTime="0.00" timeLoss="20.64" rerouteNo="1" devices="tripinfo_78 routing_78" vType="DEFAULT_VEHTYPE" speedFactor="1.14" vaporized=""/>
    <tripinfo id="77" depart="79.00" departLane="gneE0_2" departPos="5.10" departSpeed="0.00" departDelay="2.00" arrival="168.00" arrivalLane="gneE0_2" arrivalPos="2000.00" arrivalSpeed="31.85" duration="89.00" routeLength="1994.90" waitingTime="0.00" waitingCount="0" stopTime="0.00" timeLoss="25.57" rerouteNo="1" devices="tripinfo_77 routing_77" vType="DEFAULT_VEHTYPE" speedFactor="1.19" vaporized=""/>
    <tripinfo id="82" depart="82.00" departLane="gneE0_2" departPos="5.10" departSpeed="0.00" departDelay="0.00" arrival="169.00" arrivalLane="gneE0_2" arrivalPos="2000.00" arrivalSpeed="28.95" duration="87.00" routeLength="1994.90" waitingTime="0.00" waitingCount="0" stopTime="0.00" timeLoss="20.43" rerouteNo="1" devices="tripinfo_82 routing_82" vType="DEFAULT_VEHTYPE" speedFactor="1.12" vaporized=""/>
    <tripinfo id="55" depart="57.00" departLane="gneE0_1" departPos="5.10" departSpeed="0.00" departDelay="2.00" arrival="170.00" arrivalLane="gneE0_1" arrivalPos="2000.00" arrivalSpeed="17.05" duration="113.00" routeLength="1994.90" waitingTime="0.00" waitingCount="0" stopTime="0.00" timeLoss="13.60" rerouteNo="1" devices="tripinfo_55 routing_55" vType="DEFAULT_VEHTYPE" speedFactor="0.75" vaporized=""/>
    <tripinfo id="84" depart="84.00" departLane="gneE0_3" departPos="5.10" departSpeed="0.00" departDelay="0.00" arrival="183.00" arrivalLane="gneE0_3" arrivalPos="2000.00" arrivalSpeed="21.10" duration="99.00" routeLength="1994.90" waitingTime="0.00" waitingCount="0" stopTime="0.00" timeLoss="6.92" rerouteNo="1" devices="tripinfo_84 routing_84" vType="DEFAULT_VEHTYPE" speedFactor="0.81" vaporized=""/>
    <tripinfo id="62" depart="62.00" departLane="gneE0_1" departPos="5.10" departSpeed="0.00" departDelay="0.00" arrival="183.00" arrivalLane="gneE0_1" arrivalPos="2000.00" arrivalSpeed="6.07" duration="121.00" routeLength="1994.90" waitingTime="0.00" waitingCount="0" stopTime="0.00" timeLoss="62.83" rerouteNo="1" devices="tripinfo_62 routing_62" vType="DEFAULT_VEHTYPE" speedFactor="1.28" vaporized=""/>
    <tripinfo id="86" depart="89.00" departLane="gneE0_2" departPos="5.10" departSpeed="0.00" departDelay="3.00" arrival="184.00" arrivalLane="gneE0_2" arrivalPos="2000.00" arrivalSpeed="22.66" duration="95.00" routeLength="1994.90" waitingTime="0.00" waitingCount="0" stopTime="0.00" timeLoss="30.60" rerouteNo="1" devices="tripinfo_86 routing_86" vType="DEFAULT_VEHTYPE" speedFactor="1.15" vaporized=""/>